  -30.00000       -2.9400989E-18
  -29.81000       -2.9400989E-18
  -29.62000       -2.9400989E-18
  -29.43000       -2.9400989E-18
  -29.24000       -2.9400993E-18
  -29.05000       -2.9400995E-18
  -28.86000       -2.9400995E-18
  -28.67000       -2.9400995E-18
  -28.48000       -2.9400991E-18
  -28.29000       -2.9400989E-18
  -28.10000       -2.9400987E-18
  -27.91000       -2.9400987E-18
  -27.72000       -2.9400987E-18
  -27.53000       -2.9400991E-18
  -27.34000       -2.9400989E-18
  -27.15000       -2.9400989E-18
  -26.96000       -2.9400991E-18
  -26.77000       -2.9400993E-18
  -26.58000       -2.9400989E-18
  -26.39000       -2.9400985E-18
  -26.20000       -2.9400991E-18
  -26.01000       -2.9400995E-18
  -25.82000       -2.9401000E-18
  -25.63000       -2.9401004E-18
  -25.44000       -2.9401006E-18
  -25.25000       -2.9400995E-18
  -25.06000       -2.9400987E-18
  -24.87000       -2.9400979E-18
  -24.68000       -2.9400981E-18
  -24.49000       -2.9400993E-18
  -24.30000       -2.9401002E-18
  -24.11000       -2.9401006E-18
  -23.92000       -2.9401002E-18
  -23.73000       -2.9400987E-18
  -23.54000       -2.9400979E-18
  -23.35000       -2.9400977E-18
  -23.16000       -2.9400989E-18
  -22.97000       -2.9401008E-18
  -22.78000       -2.9401012E-18
  -22.59000       -2.9400997E-18
  -22.40000       -2.9400973E-18
  -22.21000       -2.9400958E-18
  -22.02000       -2.9400958E-18
  -21.83000       -2.9400973E-18
  -21.64000       -2.9400989E-18
  -21.45000       -2.9400989E-18
  -21.26000       -2.9400975E-18
  -21.07000       -2.9400969E-18
  -20.88000       -2.9400981E-18
  -20.69000       -2.9401000E-18
  -20.50000       -2.9401014E-18
  -20.31000       -2.9401016E-18
  -20.12000       -2.9401000E-18
  -19.93000       -2.9400969E-18
  -19.74000       -2.9400954E-18
  -19.55000       -2.9400962E-18
  -19.36000       -2.9400989E-18
  -19.17000       -2.9401010E-18
  -18.98000       -2.9401012E-18
  -18.79000       -2.9400993E-18
  -18.60000       -2.9400973E-18
  -18.41000       -2.9400973E-18
  -18.22000       -2.9400993E-18
  -18.03000       -2.9401020E-18
  -17.84000       -2.9401033E-18
  -17.65000       -2.9401022E-18
  -17.46000       -2.9401002E-18
  -17.27000       -2.9400977E-18
  -17.08000       -2.9400977E-18
  -16.89000       -2.9400991E-18
  -16.70000       -2.9401004E-18
  -16.51000       -2.9401004E-18
  -16.32000       -2.9400983E-18
  -16.13000       -2.9400958E-18
  -15.94000       -2.9400946E-18
  -15.75000       -2.9400964E-18
  -15.56000       -2.9400993E-18
  -15.37000       -2.9401014E-18
  -15.18000       -2.9401012E-18
  -14.99000       -2.9400995E-18
  -14.80000       -2.9400979E-18
  -14.61000       -2.9400975E-18
  -14.42000       -2.9401000E-18
  -14.23000       -2.9401029E-18
  -14.04000       -2.9401041E-18
  -13.85000       -2.9401026E-18
  -13.66000       -2.9400993E-18
  -13.47000       -2.9400964E-18
  -13.28000       -2.9400958E-18
  -13.09000       -2.9400975E-18
  -12.90000       -2.9401004E-18
  -12.71000       -2.9401012E-18
  -12.52000       -2.9401006E-18
  -12.33000       -2.9400995E-18
  -12.14000       -2.9400989E-18
  -11.95000       -2.9401006E-18
  -11.76000       -2.9401035E-18
  -11.57000       -2.9401060E-18
  -11.38000       -2.9401053E-18
  -11.19000       -2.9401022E-18
  -11.00000       -2.9400981E-18
  -10.81000       -2.9400946E-18
  -10.62000       -2.9400933E-18
  -10.43000       -2.9400929E-18
  -10.24000       -2.9400933E-18
  -10.05000       -2.9400929E-18
  -9.860000       -2.9400909E-18
  -9.670000       -2.9400892E-18
  -9.480000       -2.9400890E-18
  -9.290000       -2.9400907E-18
  -9.100000       -2.9400944E-18
  -8.910000       -2.9400989E-18
  -8.720000       -2.9401022E-18
  -8.530000       -2.9401045E-18
  -8.340000       -2.9401045E-18
  -8.150000       -2.9401022E-18
  -7.960000       -2.9400989E-18
  -7.770000       -2.9400964E-18
  -7.580000       -2.9400948E-18
  -7.390000       -2.9400944E-18
  -7.200000       -2.9400948E-18
  -7.010000       -2.9400948E-18
  -6.820000       -2.9400942E-18
  -6.630000       -2.9400940E-18
  -6.440000       -2.9400946E-18
  -6.250000       -2.9400975E-18
  -6.060000       -2.9401014E-18
  -5.870000       -2.9401051E-18
  -5.680000       -2.9401072E-18
  -5.490000       -2.9401076E-18
  -5.300000       -2.9401062E-18
  -5.110000       -2.9401055E-18
  -4.920000       -2.9401060E-18
  -4.730000       -2.9401066E-18
  -4.540000       -2.9401057E-18
  -4.350000       -2.9401026E-18
  -4.160000       -2.9400983E-18
  -3.970000       -2.9400952E-18
  -3.780000       -2.9400952E-18
  -3.590000       -2.9400975E-18
  -3.400000       -2.9401006E-18
  -3.210000       -2.9401020E-18
  -3.020000       -2.9401006E-18
  -2.830000       -2.9400985E-18
  -2.640000       -2.9400969E-18
  -2.450000       -2.9400975E-18
  -2.260000       -2.9401008E-18
  -2.070000       -2.9401045E-18
  -1.880000       -2.9401064E-18
  -1.690000       -2.9401043E-18
  -1.500000       -2.9400993E-18
  -1.310000       -2.9400942E-18
  -1.120000       -2.9400913E-18
 -0.9300000       -2.9400900E-18
 -0.7400000       -2.9400900E-18
 -0.5500000       -2.9400896E-18
 -0.3600000       -2.9400894E-18
 -0.1700000       -2.9400909E-18
  2.0000000E-02   -2.9400942E-18
  0.2100000       -2.9400997E-18
  0.4000000       -2.9401057E-18
  0.5900000       -2.9401099E-18
  0.7800000       -2.9401101E-18
  0.9700000       -2.9401072E-18
   1.160000       -2.9401026E-18
   1.350000       -2.9400997E-18
   1.540000       -2.9400995E-18
   1.730000       -2.9401002E-18
   1.920000       -2.9400995E-18
   2.110000       -2.9400975E-18
   2.300000       -2.9400940E-18
   2.490000       -2.9400919E-18
   2.680000       -2.9400931E-18
   2.870000       -2.9400973E-18
   3.060000       -2.9401022E-18
   3.250000       -2.9401060E-18
   3.440000       -2.9401068E-18
   3.630000       -2.9401053E-18
   3.820000       -2.9401035E-18
   4.010000       -2.9401026E-18
   4.200000       -2.9401043E-18
   4.390000       -2.9401055E-18
   4.580000       -2.9401062E-18
   4.770000       -2.9401060E-18
   4.960000       -2.9401037E-18
   5.150000       -2.9401016E-18
   5.340000       -2.9401020E-18
   5.530000       -2.9401043E-18
   5.720000       -2.9401064E-18
   5.910000       -2.9401064E-18
   6.100000       -2.9401035E-18
   6.290000       -2.9400991E-18
   6.480000       -2.9400960E-18
   6.670000       -2.9400950E-18
   6.860000       -2.9400958E-18
   7.050000       -2.9400969E-18
   7.240000       -2.9400960E-18
   7.430000       -2.9400927E-18
   7.620000       -2.9400880E-18
   7.810000       -2.9400847E-18
   8.000000       -2.9400851E-18
   8.190000       -2.9400898E-18
   8.380000       -2.9400950E-18
   8.570000       -2.9400971E-18
   8.760000       -2.9400973E-18
   8.950000       -2.9400971E-18
   9.140000       -2.9400985E-18
   9.330000       -2.9401033E-18
   9.520000       -2.9401080E-18
   9.710000       -2.9401099E-18
   9.900000       -2.9401060E-18
   10.09000       -2.9400985E-18
   10.28000       -2.9400902E-18
   10.47000       -2.9400865E-18
   10.66000       -2.9400882E-18
   10.85000       -2.9400931E-18
   11.04000       -2.9400981E-18
   11.23000       -2.9400991E-18
   11.42000       -2.9400977E-18
   11.61000       -2.9400958E-18
   11.80000       -2.9400979E-18
   11.99000       -2.9401039E-18
   12.18000       -2.9401099E-18
   12.37000       -2.9401113E-18
   12.56000       -2.9401068E-18
   12.75000       -2.9400983E-18
   12.94000       -2.9400909E-18
   13.13000       -2.9400898E-18
   13.32000       -2.9400944E-18
   13.51000       -2.9400995E-18
   13.70000       -2.9401004E-18
   13.89000       -2.9400977E-18
   14.08000       -2.9400927E-18
   14.27000       -2.9400919E-18
   14.46000       -2.9400975E-18
   14.65000       -2.9401066E-18
   14.84000       -2.9401130E-18
   15.03000       -2.9401134E-18
   15.22000       -2.9401091E-18
   15.41000       -2.9401033E-18
   15.60000       -2.9401008E-18
   15.79000       -2.9401041E-18
   15.98000       -2.9401086E-18
   16.17000       -2.9401084E-18
   16.36000       -2.9401014E-18
   16.55000       -2.9400907E-18
   16.74000       -2.9400818E-18
   16.93000       -2.9400795E-18
   17.12000       -2.9400844E-18
   17.31000       -2.9400915E-18
   17.50000       -2.9400942E-18
   17.69000       -2.9400904E-18
   17.88000       -2.9400838E-18
   18.07000       -2.9400813E-18
   18.26000       -2.9400880E-18
   18.45000       -2.9401012E-18
   18.64000       -2.9401151E-18
   18.83000       -2.9401215E-18
   19.02000       -2.9401186E-18
   19.21000       -2.9401099E-18
   19.40000       -2.9401026E-18
   19.59000       -2.9401018E-18
   19.78000       -2.9401072E-18
   19.97000       -2.9401120E-18
   20.16000       -2.9401107E-18
   20.35000       -2.9401020E-18
   20.54000       -2.9400907E-18
   20.73000       -2.9400836E-18
   20.92000       -2.9400849E-18
   21.11000       -2.9400929E-18
   21.30000       -2.9401002E-18
   21.49000       -2.9401014E-18
   21.68000       -2.9400956E-18
   21.87000       -2.9400894E-18
   22.06000       -2.9400886E-18
   22.25000       -2.9400954E-18
   22.44000       -2.9401060E-18
   22.63000       -2.9401128E-18
   22.82000       -2.9401115E-18
   23.01000       -2.9401026E-18
   23.20000       -2.9400938E-18
   23.39000       -2.9400911E-18
   23.58000       -2.9400975E-18
   23.77000       -2.9401080E-18
   23.96000       -2.9401136E-18
   24.15000       -2.9401103E-18
   24.34000       -2.9401012E-18
   24.53000       -2.9400921E-18
   24.72000       -2.9400894E-18
   24.91000       -2.9400942E-18
   25.10000       -2.9401029E-18
   25.29000       -2.9401084E-18
   25.48000       -2.9401068E-18
   25.67000       -2.9400991E-18
   25.86000       -2.9400921E-18
   26.05000       -2.9400900E-18
   26.24000       -2.9400938E-18
   26.43000       -2.9400989E-18
   26.62000       -2.9400991E-18
   26.81000       -2.9400938E-18
   27.00000       -2.9400857E-18
   27.19000       -2.9400805E-18
   27.38000       -2.9400811E-18
   27.57000       -2.9400880E-18
   27.76000       -2.9400962E-18
   27.95000       -2.9401010E-18
   28.14000       -2.9400991E-18
   28.33000       -2.9400944E-18
   28.52000       -2.9400925E-18
   28.71000       -2.9400966E-18
   28.90000       -2.9401051E-18
   29.09000       -2.9401134E-18
   29.28000       -2.9401163E-18
   29.47000       -2.9401117E-18
   29.66000       -2.9401043E-18
   29.85000       -2.9400985E-18
   30.04000       -2.9400981E-18
   30.23000       -2.9401010E-18
   30.42000       -2.9401041E-18
   30.61000       -2.9401035E-18
   30.80000       -2.9400993E-18
   30.99000       -2.9400950E-18
   31.18000       -2.9400942E-18
   31.37000       -2.9400983E-18
   31.56000       -2.9401051E-18
   31.75000       -2.9401122E-18
   31.94000       -2.9401142E-18
   32.13000       -2.9401115E-18
   32.32000       -2.9401070E-18
   32.51000       -2.9401047E-18
   32.70000       -2.9401047E-18
   32.89000       -2.9401064E-18
   33.08000       -2.9401072E-18
   33.27000       -2.9401049E-18
   33.46000       -2.9401012E-18
   33.65000       -2.9400981E-18
   33.84000       -2.9400977E-18
   34.03000       -2.9400997E-18
   34.22000       -2.9401020E-18
   34.41000       -2.9401012E-18
   34.60000       -2.9400966E-18
   34.79000       -2.9400898E-18
   34.98000       -2.9400855E-18
   35.17000       -2.9400844E-18
   35.36000       -2.9400871E-18
   35.55000       -2.9400900E-18
   35.74000       -2.9400913E-18
   35.93000       -2.9400890E-18
   36.12000       -2.9400871E-18
   36.31000       -2.9400880E-18
   36.50000       -2.9400919E-18
   36.69000       -2.9400973E-18
   36.88000       -2.9401006E-18
   37.07000       -2.9400987E-18
   37.26000       -2.9400931E-18
   37.45000       -2.9400875E-18
   37.64000       -2.9400855E-18
   37.83000       -2.9400886E-18
   38.02000       -2.9400948E-18
   38.21000       -2.9401014E-18
   38.40000       -2.9401037E-18
   38.59000       -2.9401026E-18
   38.78000       -2.9401014E-18
   38.97000       -2.9401037E-18
   39.16000       -2.9401080E-18
   39.35000       -2.9401130E-18
   39.54000       -2.9401146E-18
   39.73000       -2.9401111E-18
   39.92000       -2.9401053E-18
   40.11000       -2.9401033E-18
   40.30000       -2.9401074E-18
   40.49000       -2.9401169E-18
   40.68000       -2.9401273E-18
   40.87000       -2.9401328E-18
   41.06000       -2.9401314E-18
   41.25000       -2.9401262E-18
   41.44000       -2.9401223E-18
   41.63000       -2.9401248E-18
   41.82000       -2.9401322E-18
   42.01000       -2.9401399E-18
   42.20000       -2.9401423E-18
   42.39000       -2.9401359E-18
   42.58000       -2.9401246E-18
   42.77000       -2.9401138E-18
   42.96000       -2.9401062E-18
   43.15000       -2.9401016E-18
   43.34000       -2.9400938E-18
   43.53000       -2.9400762E-18
   43.72000       -2.9400476E-18
   43.91000       -2.9400119E-18
   44.10000       -2.9399757E-18
   44.29000       -2.9399418E-18
   44.48000       -2.9399095E-18
   44.67000       -2.9398723E-18
   44.86000       -2.9398251E-18
   45.05000       -2.9397683E-18
   45.24000       -2.9397104E-18
   45.43000       -2.9396626E-18
   45.62000       -2.9396336E-18
   45.81000       -2.9396289E-18
   46.00000       -2.9396481E-18
   46.19000       -2.9396909E-18
   46.38000       -2.9397623E-18
   46.57000       -2.9398731E-18
   46.76000       -2.9400344E-18
   46.95000       -2.9402509E-18
   47.14000       -2.9405187E-18
   47.33000       -2.9408287E-18
   47.52000       -2.9411674E-18
   47.71000       -2.9415235E-18
   47.90000       -2.9418894E-18
   48.09000       -2.9422552E-18
   48.28000       -2.9426042E-18
   48.47000       -2.9429107E-18
   48.66000       -2.9431442E-18
   48.85000       -2.9432722E-18
   49.04000       -2.9432681E-18
   49.23000       -2.9431094E-18
   49.42000       -2.9427763E-18
   49.61000       -2.9422475E-18
   49.80000       -2.9415033E-18
   49.99000       -2.9405284E-18
   50.18000       -2.9393205E-18
   50.37000       -2.9378970E-18
   50.56000       -2.9362935E-18
   50.75000       -2.9345587E-18
   50.94000       -2.9327515E-18
   51.13000       -2.9309377E-18
   51.32000       -2.9291956E-18
   51.51000       -2.9276184E-18
   51.70000       -2.9263131E-18
   51.89000       -2.9253964E-18
   52.08000       -2.9249822E-18
   52.27000       -2.9251743E-18
   52.46000       -2.9260615E-18
   52.65000       -2.9277142E-18
   52.84000       -2.9301808E-18
   53.03000       -2.9334893E-18
   53.22000       -2.9376350E-18
   53.41000       -2.9425743E-18
   53.60000       -2.9482160E-18
   53.79000       -2.9544255E-18
   53.98000       -2.9610237E-18
   54.17000       -2.9677925E-18
   54.36000       -2.9744809E-18
   54.55000       -2.9808022E-18
   54.74000       -2.9864432E-18
   54.93000       -2.9910717E-18
   55.12000       -2.9943510E-18
   55.31000       -2.9959580E-18
   55.50000       -2.9955982E-18
   55.69000       -2.9930176E-18
   55.88000       -2.9880185E-18
   56.07000       -2.9804655E-18
   56.26000       -2.9703020E-18
   56.45000       -2.9575688E-18
   56.64000       -2.9424161E-18
   56.83000       -2.9251112E-18
   57.02000       -2.9060387E-18
   57.21000       -2.8856905E-18
   57.40000       -2.8646586E-18
   57.59000       -2.8436261E-18
   57.78000       -2.8233575E-18
   57.97000       -2.8046810E-18
   58.16000       -2.7884676E-18
   58.35000       -2.7756006E-18
   58.54000       -2.7669373E-18
   58.73000       -2.7632758E-18
   58.92000       -2.7653241E-18
   59.11000       -2.7736696E-18
   59.30000       -2.7887503E-18
   59.49000       -2.8108189E-18
   59.68000       -2.8399127E-18
   59.87000       -2.8758212E-18
   60.06000       -2.9180709E-18
   60.25000       -2.9659231E-18
   60.44000       -3.0183798E-18
   60.63000       -3.0741973E-18
   60.82000       -3.1319060E-18
   61.01000       -3.1898374E-18
   61.20000       -3.2461580E-18
   61.39000       -3.2989191E-18
   61.58000       -3.3461214E-18
   61.77000       -3.3857793E-18
   61.96000       -3.4159840E-18
   62.15000       -3.4349587E-18
   62.34000       -3.4411057E-18
   62.53000       -3.4330514E-18
   62.72000       -3.4096900E-18
   62.91000       -3.3702291E-18
   63.10000       -3.3142294E-18
   63.29000       -3.2416350E-18
   63.48000       -3.1527948E-18
   63.67000       -3.0484765E-18
   63.86000       -2.9298855E-18
   64.05000       -2.7986897E-18
   64.24000       -2.6570483E-18
   64.43000       -2.5076355E-18
   64.62000       -2.3536483E-18
   64.81000       -2.1988001E-18
   65.00000       -2.0472977E-18
   65.19000       -1.9037946E-18
   65.38000       -1.7733328E-18
   65.57000       -1.6612503E-18
   65.76000       -1.5730537E-18
   65.95000       -1.5142513E-18
   66.14000       -1.4901462E-18
   66.33000       -1.5056052E-18
   66.52000       -1.5648068E-18
   66.71000       -1.6709950E-18
   66.90000       -1.8262396E-18
   67.09000       -2.0312113E-18
   67.28000       -2.2849903E-18
   67.47000       -2.5849160E-18
   67.66000       -2.9265055E-18
   67.85000       -3.3034415E-18
   68.04000       -3.7076497E-18
   68.23000       -4.1294544E-18
   68.42000       -4.5578032E-18
   68.61000       -4.9805583E-18
   68.80000       -5.3848391E-18
   68.99000       -5.7574000E-18
   69.18000       -6.0850504E-18
   69.37000       -6.3550793E-18
   69.56000       -6.5556686E-18
   69.75000       -6.6762856E-18
   69.94000       -6.7080282E-18
   70.13000       -6.6439196E-18
   70.32000       -6.4791515E-18
   70.51000       -6.2112637E-18
   70.70000       -5.8402616E-18
   70.89000       -5.3686756E-18
   71.08000       -4.8015518E-18
   71.27000       -4.1463855E-18
   71.46000       -3.4129977E-18
   71.65000       -2.6133706E-18
   71.84000       -1.7614364E-18
   72.03000       -8.7283860E-19
   72.22000        3.5335246E-20
   72.41000        9.4484064E-19
   72.60000        1.8365699E-18
   72.79000        2.6908477E-18
   72.98000        3.4877260E-18
   73.17000        4.2072619E-18
   73.36000        4.8297901E-18
   73.55000        5.3361698E-18
   73.74000        5.7080330E-18
   73.93000        5.9280138E-18
   74.12000        5.9799761E-18
   74.31000        5.8492390E-18
   74.50000        5.5228124E-18
   74.69000        4.9896597E-18
   74.88000        4.2409939E-18
   75.07000        3.2706204E-18
   75.26000        2.0753440E-18
   75.45000        6.5544463E-19
   75.64000       -9.8476845E-19
   75.83000       -2.8363277E-18
   76.02000       -4.8848866E-18
   76.21000       -7.1099557E-18
   76.40000       -9.4841088E-18
   76.59000       -1.1972204E-17
   76.78000       -1.4530695E-17
   76.97000       -1.7107086E-17
   77.16000       -1.9639668E-17
   77.35000       -2.2057578E-17
   77.54000       -2.4281346E-17
   77.73000       -2.6223999E-17
   77.92000       -2.7792802E-17
   78.11000       -2.8891705E-17
   78.30000       -2.9424456E-17
   78.49000       -2.9298436E-17
   78.68000       -2.8429043E-17
   78.87000       -2.6744546E-17
   79.06000       -2.4191180E-17
   79.25000       -2.0738245E-17
   79.44000       -1.6382926E-17
   79.63000       -1.1154528E-17
   79.82000       -5.1178359E-18
   80.01000        1.6247109E-18
   80.20000        8.9322842E-18
   80.39000        1.6626539E-17
   80.58000        2.4494325E-17
   80.77000        3.2292168E-17
   80.96000        3.9752603E-17
   81.15000        4.6592209E-17
   81.34000        5.2521098E-17
   81.53000        5.7253683E-17
   81.72000        6.0520299E-17
   81.91000        6.2079243E-17
   82.10000        6.1728883E-17
   82.29000        5.9319133E-17
   82.48000        5.4762004E-17
   82.67000        4.8040470E-17
   82.86000        3.9215352E-17
   83.05000        2.8429602E-17
   83.24000        1.5909663E-17
   83.43000        1.9634937E-18
   83.62000       -1.3024850E-17
   83.81000       -2.8604299E-17
   84.00000       -4.4269337E-17
   84.19000       -5.9475921E-17
   84.38000       -7.3660288E-17
   84.57000       -8.6260062E-17
   84.76000       -9.6737045E-17
   84.95000       -1.0460070E-16
   85.14000       -1.0943131E-16
   85.33000       -1.1090184E-16
   85.52000       -1.0879731E-16
   85.71000       -1.0303068E-16
   85.90000       -9.3654157E-17
   86.09000       -8.0865230E-17
   86.28000       -6.5006622E-17
   86.47000       -4.6559876E-17
   86.66000       -2.6132333E-17
   86.85000       -4.4376672E-18
   87.04000        1.7729407E-17
   87.23000        3.9523530E-17
   87.42000        6.0083058E-17
   87.61000        7.8567004E-17
   87.80000        9.4192916E-17
   87.99000        1.0627404E-16
   88.18000        1.1425392E-16
   88.37000        1.1773645E-16
   88.56000        1.1650990E-16
   88.75000        1.1056304E-16
   88.94000        1.0009272E-16
   89.13000        8.5501325E-17
   89.32000        6.7384938E-17
   89.51000        4.6510933E-17
   89.70000        2.3787127E-17
   89.89000        2.2261770E-19
   90.08000       -2.3117276E-17
   90.27000       -4.5160051E-17
   90.46000       -6.4876887E-17
   90.65000       -8.1332448E-17
   90.84000       -9.3731296E-17
   91.03000       -1.0145849E-16
   91.22000       -1.0411225E-16
   91.41000       -1.0152686E-16
   91.60000       -9.3784805E-17
   91.79000       -8.1217231E-17
   91.98000       -6.4392987E-17
   92.17000       -4.4096247E-17
   92.36000       -2.1294221E-17
   92.55000        2.9042770E-18
   92.74000        2.7296959E-17
   92.93000        5.0641685E-17
   93.12000        7.1712827E-17
   93.31000        8.9358250E-17
   93.50000        1.0255488E-16
   93.69000        1.1046051E-16
   93.88000        1.1245949E-16
   94.07000        1.0820061E-16
   94.26000        9.7624941E-17
   94.45000        8.0982206E-17
   94.64000        5.8834101E-17
   94.83000        3.2043703E-17
   95.02000        1.7503022E-18
   95.21000       -3.0670156E-17
   95.40000       -6.3658847E-17
   95.59000       -9.5540314E-17
   95.78000       -1.2459923E-16
   95.97000       -1.4916458E-16
   96.16000       -1.6769769E-16
   96.35000       -1.7887998E-16
   96.54000       -1.8169603E-16
   96.73000       -1.7550659E-16
   96.92000       -1.6010713E-16
   97.11000       -1.3576731E-16
   97.30000       -1.0324766E-16
   97.49000       -6.3791474E-17
   97.68000       -1.9089148E-17
   97.87000        2.8784105E-17
   98.06000        7.7455750E-17
   98.25000        1.2436598E-16
   98.44000        1.6689508E-16
   98.63000        2.0250228E-16
   98.82000        2.2886865E-16
   99.01000        2.4403609E-16
   99.20000        2.4653386E-16
   99.39000        2.3548538E-16
   99.58000        2.1068691E-16
   99.77000        1.7265284E-16
   99.96000        1.2262329E-16
   100.1500        6.2531089E-17
   100.3400       -5.0708426E-18
   100.5300       -7.7119723E-17
   100.7200       -1.5018502E-16
   100.9100       -2.2063445E-16
   101.1000       -2.8481573E-16
   101.2900       -3.3924281E-16
   101.4800       -3.8077630E-16
   101.6700       -4.0678749E-16
   101.8600       -4.1529663E-16
   102.0500       -4.0507747E-16
   102.2400       -3.7572288E-16
   102.4300       -3.2766882E-16
   102.6200       -2.6217666E-16
   102.8100       -1.8127700E-16
   103.0000       -8.7679616E-17
   103.1900        1.5343969E-17
   103.3800        1.2409712E-16
   103.5700        2.3460632E-16
   103.7600        3.4277300E-16
   103.9500        4.4452236E-16
   104.1400        5.3594321E-16
   104.3300        6.1341613E-16
   104.5200        6.7372614E-16
   104.7100        7.1416074E-16
   104.9000        7.3259239E-16
   105.0900        7.2754561E-16
   105.2800        6.9825023E-16
   105.4700        6.4467895E-16
   105.6600        5.6757031E-16
   105.8500        4.6843410E-16
   106.0400        3.4953730E-16
   106.2300        2.1386841E-16
   106.4200        6.5076377E-17
   106.6100       -9.2617898E-17
   106.8000       -2.5453835E-16
   106.9900       -4.1569796E-16
   107.1800       -5.7096739E-16
   107.3700       -7.1526268E-16
   107.5600       -8.4374291E-16
   107.7500       -9.5200976E-16
   107.9400       -1.0362971E-15
   108.1300       -1.0936376E-15
   108.3200       -1.1219976E-15
   108.5100       -1.1203674E-15
   108.7000       -1.0887998E-15
   108.8900       -1.0283949E-15
   109.0800       -9.4122693E-16
   109.2700       -8.3022019E-16
   109.4600       -6.9897789E-16
   109.6500       -5.5157907E-16
   109.8400       -3.9235471E-16
   110.0300       -2.2566043E-16
   110.2200       -5.5662525E-17
   110.4100        1.1384605E-16
   110.6000        2.7958689E-16
   110.7900        4.3888332E-16
   110.9800        5.8968798E-16
   111.1700        7.3055019E-16
   111.3600        8.6052666E-16
   111.5500        9.7904600E-16
   111.7400        1.0857407E-15
   111.9300        1.1802638E-15
   112.1200        1.2621093E-15
   112.3100        1.3304587E-15
   112.5000        1.3840675E-15
   112.6900        1.4212105E-15
   112.8800        1.4396931E-15
   113.0700        1.4369343E-15
   113.2600        1.4101168E-15
   113.4500        1.3563971E-15
   113.6400        1.2731590E-15
   113.8300        1.1582919E-15
   114.0200        1.0104686E-15
   114.2100        8.2940010E-16
   114.4000        6.1604378E-16
   114.5900        3.7274421E-16
   114.7800        1.0329258E-16
   114.9700       -1.8710563E-16
   115.1600       -4.9195578E-16
   115.3500       -8.0368657E-16
   115.5400       -1.1139378E-15
   115.7300       -1.4139045E-15
   115.9200       -1.6947162E-15
   116.1100       -1.9478251E-15
   116.3000       -2.1653800E-15
   116.4900       -2.3405629E-15
   116.6800       -2.4678667E-15
   116.8700       -2.5433041E-15
   117.0600       -2.5645358E-15
   117.2500       -2.5309148E-15
   117.4400       -2.4434520E-15
   117.6300       -2.3047110E-15
   117.8200       -2.1186397E-15
   118.0100       -1.8903605E-15
   118.2000       -1.6259243E-15
   118.3900       -1.3320548E-15
   118.5800       -1.0158866E-15
   118.7700       -6.8471576E-16
   118.9600       -3.4576528E-16
   119.1500       -5.9774470E-18
   119.3400        3.2817079E-16
   119.5300        6.5082417E-16
   119.7200        9.5687819E-16
   119.9100        1.2420836E-15
   120.1000        1.5031232E-15
   120.2900        1.7376649E-15
   120.4800        1.9443859E-15
   120.6700        2.1229657E-15
   120.8600        2.2740440E-15
   121.0500        2.3991404E-15
   121.2400        2.5005287E-15
   121.4300        2.5810661E-15
   121.6200        2.6439723E-15
   121.8100        2.6925680E-15
   122.0000        2.7299728E-15
   122.1900        2.7587791E-15
   122.3800        2.7807194E-15
   122.5700        2.7963446E-15
   122.7600        2.8047414E-15
   122.9500        2.8033148E-15
   123.1400        2.7876619E-15
   123.3300        2.7515592E-15
   123.5200        2.6870869E-15
   123.7100        2.5848951E-15
   123.9000        2.4346232E-15
   124.0900        2.2254611E-15
   124.2800        1.9468324E-15
   124.4700        1.5891728E-15
   124.6600        1.1447629E-15
   124.8500        6.0856400E-16
   125.0400       -2.0994660E-17
   125.2300       -7.4133044E-16
   125.4200       -1.5451877E-15
   125.6100       -2.4203234E-15
   125.8000       -3.3494381E-15
   125.9900       -4.3103872E-15
   126.1800       -5.2766718E-15
   126.3700       -6.2182090E-15
   126.5600       -7.1023564E-15
   126.7500       -7.8951450E-15
   126.9400       -8.5626713E-15
   127.1300       -9.0725801E-15
   127.3200       -9.3955546E-15
   127.5100       -9.5067370E-15
   127.7000       -9.3870182E-15
   127.8900       -9.0241044E-15
   128.0800       -8.4133208E-15
   128.2700       -7.5580987E-15
   128.4600       -6.4701255E-15
   128.6500       -5.1691469E-15
   128.8400       -3.6824372E-15
   129.0300       -2.0439593E-15
   129.2200       -2.9326269E-16
   129.4100        1.5258252E-15
   129.6000        3.3666472E-15
   129.7900        5.1812451E-15
   129.9800        6.9218927E-15
   130.1700        8.5425738E-15
   130.3600        1.0000355E-14
   130.5500        1.1256585E-14
   130.7400        1.2277920E-14
   130.9300        1.3037128E-14
   131.1200        1.3513671E-14
   131.3100        1.3694079E-14
   131.5000        1.3572118E-14
   131.6900        1.3148766E-14
   131.8800        1.2432039E-14
   132.0700        1.1436674E-14
   132.2600        1.0183708E-14
   132.4500        8.6999576E-15
   132.6400        7.0174414E-15
   132.8300        5.1727248E-15
   133.0200        3.2062116E-15
   133.2100        1.1613759E-15
   133.4000       -9.1608276E-16
   133.5900       -2.9791483E-15
   133.7800       -4.9804745E-15
   133.9700       -6.8734479E-15
   134.1600       -8.6133103E-15
   134.3500       -1.0158323E-14
   134.5400       -1.1470945E-14
   134.7300       -1.2518983E-14
   134.9200       -1.3276642E-14
   135.1100       -1.3725457E-14
   135.3000       -1.3855006E-14
   135.4900       -1.3663381E-14
   135.6800       -1.3157347E-14
   135.8700       -1.2352174E-14
   136.0600       -1.1271126E-14
   136.2500       -9.9446123E-15
   136.4400       -8.4090475E-15
   136.6300       -6.7054474E-15
   136.8200       -4.8778861E-15
   137.0100       -2.9718638E-15
   137.2000       -1.0327122E-15
   137.3900        8.9587636E-16
   137.5800        2.7731132E-15
   137.7700        4.5620809E-15
   137.9600        6.2303771E-15
   138.1500        7.7503955E-15
   138.3400        9.0992701E-15
   138.5300        1.0258512E-14
   138.7200        1.1213428E-14
   138.9100        1.1952395E-14
   139.1000        1.2466117E-14
   139.2900        1.2746954E-14
   139.4800        1.2788423E-14
   139.6700        1.2584978E-14
   139.8600        1.2132088E-14
   140.0500        1.1426664E-14
   140.2400        1.0467805E-14
   140.4300        9.2577999E-15
   140.6200        7.8033080E-15
   140.8100        6.1165964E-15
   141.0000        4.2166935E-15
   141.1900        2.1303167E-15
   141.3800       -1.0754962E-16
   141.5700       -2.4535548E-15
   141.7600       -4.8564380E-15
   141.9500       -7.2580873E-15
   142.1400       -9.5951765E-15
   142.3300       -1.1801348E-14
   142.5200       -1.3809787E-14