  -30.00000        1.0384919E-17
  -29.81000        1.0384919E-17
  -29.62000        1.0384919E-17
  -29.43000        1.0384919E-17
  -29.24000        1.0384921E-17
  -29.05000        1.0384921E-17
  -28.86000        1.0384921E-17
  -28.67000        1.0384920E-17
  -28.48000        1.0384919E-17
  -28.29000        1.0384918E-17
  -28.10000        1.0384918E-17
  -27.91000        1.0384918E-17
  -27.72000        1.0384918E-17
  -27.53000        1.0384918E-17
  -27.34000        1.0384921E-17
  -27.15000        1.0384923E-17
  -26.96000        1.0384922E-17
  -26.77000        1.0384921E-17
  -26.58000        1.0384918E-17
  -26.39000        1.0384917E-17
  -26.20000        1.0384916E-17
  -26.01000        1.0384916E-17
  -25.82000        1.0384918E-17
  -25.63000        1.0384919E-17
  -25.44000        1.0384922E-17
  -25.25000        1.0384923E-17
  -25.06000        1.0384923E-17
  -24.87000        1.0384921E-17
  -24.68000        1.0384919E-17
  -24.49000        1.0384918E-17
  -24.30000        1.0384917E-17
  -24.11000        1.0384918E-17
  -23.92000        1.0384919E-17
  -23.73000        1.0384922E-17
  -23.54000        1.0384923E-17
  -23.35000        1.0384923E-17
  -23.16000        1.0384921E-17
  -22.97000        1.0384918E-17
  -22.78000        1.0384917E-17
  -22.59000        1.0384916E-17
  -22.40000        1.0384918E-17
  -22.21000        1.0384920E-17
  -22.02000        1.0384922E-17
  -21.83000        1.0384923E-17
  -21.64000        1.0384922E-17
  -21.45000        1.0384920E-17
  -21.26000        1.0384918E-17
  -21.07000        1.0384917E-17
  -20.88000        1.0384916E-17
  -20.69000        1.0384917E-17
  -20.50000        1.0384919E-17
  -20.31000        1.0384921E-17
  -20.12000        1.0384923E-17
  -19.93000        1.0384922E-17
  -19.74000        1.0384920E-17
  -19.55000        1.0384918E-17
  -19.36000        1.0384917E-17
  -19.17000        1.0384916E-17
  -18.98000        1.0384916E-17
  -18.79000        1.0384917E-17
  -18.60000        1.0384918E-17
  -18.41000        1.0384920E-17
  -18.22000        1.0384921E-17
  -18.03000        1.0384920E-17
  -17.84000        1.0384918E-17
  -17.65000        1.0384915E-17
  -17.46000        1.0384913E-17
  -17.27000        1.0384913E-17
  -17.08000        1.0384916E-17
  -16.89000        1.0384921E-17
  -16.70000        1.0384924E-17
  -16.51000        1.0384925E-17
  -16.32000        1.0384923E-17
  -16.13000        1.0384920E-17
  -15.94000        1.0384918E-17
  -15.75000        1.0384915E-17
  -15.56000        1.0384915E-17
  -15.37000        1.0384918E-17
  -15.18000        1.0384921E-17
  -14.99000        1.0384924E-17
  -14.80000        1.0384925E-17
  -14.61000        1.0384924E-17
  -14.42000        1.0384922E-17
  -14.23000        1.0384918E-17
  -14.04000        1.0384917E-17
  -13.85000        1.0384917E-17
  -13.66000        1.0384918E-17
  -13.47000        1.0384922E-17
  -13.28000        1.0384924E-17
  -13.09000        1.0384925E-17
  -12.90000        1.0384923E-17
  -12.71000        1.0384919E-17
  -12.52000        1.0384914E-17
  -12.33000        1.0384911E-17
  -12.14000        1.0384910E-17
  -11.95000        1.0384913E-17
  -11.76000        1.0384918E-17
  -11.57000        1.0384923E-17
  -11.38000        1.0384925E-17
  -11.19000        1.0384923E-17
  -11.00000        1.0384918E-17
  -10.81000        1.0384913E-17
  -10.62000        1.0384910E-17
  -10.43000        1.0384913E-17
  -10.24000        1.0384918E-17
  -10.05000        1.0384925E-17
  -9.860000        1.0384929E-17
  -9.670000        1.0384930E-17
  -9.480000        1.0384927E-17
  -9.290000        1.0384921E-17
  -9.100000        1.0384916E-17
  -8.910000        1.0384913E-17
  -8.720000        1.0384913E-17
  -8.530000        1.0384916E-17
  -8.340000        1.0384919E-17
  -8.150000        1.0384923E-17
  -7.960000        1.0384922E-17
  -7.770000        1.0384918E-17
  -7.580000        1.0384912E-17
  -7.390000        1.0384907E-17
  -7.200000        1.0384906E-17
  -7.010000        1.0384911E-17
  -6.820000        1.0384920E-17
  -6.630000        1.0384929E-17
  -6.440000        1.0384935E-17
  -6.250000        1.0384935E-17
  -6.060000        1.0384930E-17
  -5.870000        1.0384923E-17
  -5.680000        1.0384917E-17
  -5.490000        1.0384914E-17
  -5.300000        1.0384915E-17
  -5.110000        1.0384920E-17
  -4.920000        1.0384923E-17
  -4.730000        1.0384923E-17
  -4.540000        1.0384919E-17
  -4.350000        1.0384913E-17
  -4.160000        1.0384907E-17
  -3.970000        1.0384904E-17
  -3.780000        1.0384905E-17
  -3.590000        1.0384911E-17
  -3.400000        1.0384919E-17
  -3.210000        1.0384927E-17
  -3.020000        1.0384931E-17
  -2.830000        1.0384932E-17
  -2.640000        1.0384927E-17
  -2.450000        1.0384921E-17
  -2.260000        1.0384916E-17
  -2.070000        1.0384915E-17
  -1.880000        1.0384918E-17
  -1.690000        1.0384924E-17
  -1.500000        1.0384929E-17
  -1.310000        1.0384929E-17
  -1.120000        1.0384925E-17
 -0.9300000        1.0384917E-17
 -0.7400000        1.0384909E-17
 -0.5500000        1.0384905E-17
 -0.3600000        1.0384906E-17
 -0.1700000        1.0384911E-17
  2.0000000E-02    1.0384918E-17
  0.2100000        1.0384923E-17
  0.4000000        1.0384927E-17
  0.5900000        1.0384926E-17
  0.7800000        1.0384923E-17
  0.9700000        1.0384921E-17
   1.160000        1.0384923E-17
   1.350000        1.0384926E-17
   1.540000        1.0384932E-17
   1.730000        1.0384937E-17
   1.920000        1.0384939E-17
   2.110000        1.0384937E-17
   2.300000        1.0384932E-17
   2.490000        1.0384923E-17
   2.680000        1.0384913E-17
   2.870000        1.0384907E-17
   3.060000        1.0384904E-17
   3.250000        1.0384904E-17
   3.440000        1.0384909E-17
   3.630000        1.0384913E-17
   3.820000        1.0384915E-17
   4.010000        1.0384913E-17
   4.200000        1.0384910E-17
   4.390000        1.0384908E-17
   4.580000        1.0384908E-17
   4.770000        1.0384913E-17
   4.960000        1.0384923E-17
   5.150000        1.0384932E-17
   5.340000        1.0384937E-17
   5.530000        1.0384938E-17
   5.720000        1.0384935E-17
   5.910000        1.0384932E-17
   6.100000        1.0384928E-17
   6.290000        1.0384926E-17
   6.480000        1.0384926E-17
   6.670000        1.0384925E-17
   6.860000        1.0384923E-17
   7.050000        1.0384921E-17
   7.240000        1.0384918E-17
   7.430000        1.0384913E-17
   7.620000        1.0384906E-17
   7.810000        1.0384901E-17
   8.000000        1.0384898E-17
   8.190000        1.0384898E-17
   8.380000        1.0384900E-17
   8.570000        1.0384906E-17
   8.760000        1.0384912E-17
   8.950000        1.0384917E-17
   9.140000        1.0384918E-17
   9.330000        1.0384916E-17
   9.520000        1.0384913E-17
   9.710000        1.0384911E-17
   9.900000        1.0384912E-17
   10.09000        1.0384917E-17
   10.28000        1.0384923E-17
   10.47000        1.0384928E-17
   10.66000        1.0384928E-17
   10.85000        1.0384927E-17
   11.04000        1.0384924E-17
   11.23000        1.0384923E-17
   11.42000        1.0384923E-17
   11.61000        1.0384925E-17
   11.80000        1.0384927E-17
   11.99000        1.0384928E-17
   12.18000        1.0384928E-17
   12.37000        1.0384926E-17
   12.56000        1.0384924E-17
   12.75000        1.0384923E-17
   12.94000        1.0384923E-17
   13.13000        1.0384921E-17
   13.32000        1.0384920E-17
   13.51000        1.0384918E-17
   13.70000        1.0384917E-17
   13.89000        1.0384916E-17
   14.08000        1.0384918E-17
   14.27000        1.0384920E-17
   14.46000        1.0384922E-17
   14.65000        1.0384923E-17
   14.84000        1.0384923E-17
   15.03000        1.0384923E-17
   15.22000        1.0384922E-17
   15.41000        1.0384920E-17
   15.60000        1.0384918E-17
   15.79000        1.0384916E-17
   15.98000        1.0384913E-17
   16.17000        1.0384912E-17
   16.36000        1.0384913E-17
   16.55000        1.0384916E-17
   16.74000        1.0384919E-17
   16.93000        1.0384923E-17
   17.12000        1.0384923E-17
   17.31000        1.0384921E-17
   17.50000        1.0384919E-17
   17.69000        1.0384918E-17
   17.88000        1.0384919E-17
   18.07000        1.0384921E-17
   18.26000        1.0384921E-17
   18.45000        1.0384917E-17
   18.64000        1.0384911E-17
   18.83000        1.0384905E-17
   19.02000        1.0384903E-17
   19.21000        1.0384905E-17
   19.40000        1.0384912E-17
   19.59000        1.0384919E-17
   19.78000        1.0384927E-17
   19.97000        1.0384931E-17
   20.16000        1.0384932E-17
   20.35000        1.0384930E-17
   20.54000        1.0384926E-17
   20.73000        1.0384922E-17
   20.92000        1.0384918E-17
   21.11000        1.0384916E-17
   21.30000        1.0384917E-17
   21.49000        1.0384920E-17
   21.68000        1.0384923E-17
   21.87000        1.0384927E-17
   22.06000        1.0384927E-17
   22.25000        1.0384924E-17
   22.44000        1.0384921E-17
   22.63000        1.0384918E-17
   22.82000        1.0384919E-17
   23.01000        1.0384923E-17
   23.20000        1.0384927E-17
   23.39000        1.0384930E-17
   23.58000        1.0384928E-17
   23.77000        1.0384924E-17
   23.96000        1.0384918E-17
   24.15000        1.0384913E-17
   24.34000        1.0384911E-17
   24.53000        1.0384911E-17
   24.72000        1.0384913E-17
   24.91000        1.0384918E-17
   25.10000        1.0384920E-17
   25.29000        1.0384921E-17
   25.48000        1.0384919E-17
   25.67000        1.0384915E-17
   25.86000        1.0384910E-17
   26.05000        1.0384907E-17
   26.24000        1.0384906E-17
   26.43000        1.0384908E-17
   26.62000        1.0384911E-17
   26.81000        1.0384915E-17
   27.00000        1.0384918E-17
   27.19000        1.0384919E-17
   27.38000        1.0384918E-17
   27.57000        1.0384916E-17
   27.76000        1.0384916E-17
   27.95000        1.0384919E-17
   28.14000        1.0384928E-17
   28.33000        1.0384937E-17
   28.52000        1.0384944E-17
   28.71000        1.0384947E-17
   28.90000        1.0384942E-17
   29.09000        1.0384932E-17
   29.28000        1.0384922E-17
   29.47000        1.0384913E-17
   29.66000        1.0384910E-17
   29.85000        1.0384913E-17
   30.04000        1.0384919E-17
   30.23000        1.0384926E-17
   30.42000        1.0384931E-17
   30.61000        1.0384932E-17
   30.80000        1.0384928E-17
   30.99000        1.0384924E-17
   31.18000        1.0384919E-17
   31.37000        1.0384917E-17
   31.56000        1.0384918E-17
   31.75000        1.0384920E-17
   31.94000        1.0384922E-17
   32.13000        1.0384923E-17
   32.32000        1.0384920E-17
   32.51000        1.0384916E-17
   32.70000        1.0384909E-17
   32.89000        1.0384903E-17
   33.08000        1.0384899E-17
   33.27000        1.0384900E-17
   33.46000        1.0384905E-17
   33.65000        1.0384911E-17
   33.84000        1.0384913E-17
   34.03000        1.0384913E-17
   34.22000        1.0384910E-17
   34.41000        1.0384908E-17
   34.60000        1.0384908E-17
   34.79000        1.0384914E-17
   34.98000        1.0384924E-17
   35.17000        1.0384932E-17
   35.36000        1.0384937E-17
   35.55000        1.0384937E-17
   35.74000        1.0384931E-17
   35.93000        1.0384922E-17
   36.12000        1.0384913E-17
   36.31000        1.0384907E-17
   36.50000        1.0384905E-17
   36.69000        1.0384908E-17
   36.88000        1.0384915E-17
   37.07000        1.0384922E-17
   37.26000        1.0384927E-17
   37.45000        1.0384928E-17
   37.64000        1.0384925E-17
   37.83000        1.0384919E-17
   38.02000        1.0384914E-17
   38.21000        1.0384912E-17
   38.40000        1.0384913E-17
   38.59000        1.0384915E-17
   38.78000        1.0384919E-17
   38.97000        1.0384922E-17
   39.16000        1.0384922E-17
   39.35000        1.0384919E-17
   39.54000        1.0384916E-17
   39.73000        1.0384913E-17
   39.92000        1.0384911E-17
   40.11000        1.0384911E-17
   40.30000        1.0384911E-17
   40.49000        1.0384910E-17
   40.68000        1.0384908E-17
   40.87000        1.0384906E-17
   41.06000        1.0384904E-17
   41.25000        1.0384908E-17
   41.44000        1.0384916E-17
   41.63000        1.0384928E-17
   41.82000        1.0384939E-17
   42.01000        1.0384948E-17
   42.20000        1.0384952E-17
   42.39000        1.0384952E-17
   42.58000        1.0384950E-17
   42.77000        1.0384946E-17
   42.96000        1.0384942E-17
   43.15000        1.0384940E-17
   43.34000        1.0384938E-17
   43.53000        1.0384936E-17
   43.72000        1.0384932E-17
   43.91000        1.0384926E-17
   44.10000        1.0384917E-17
   44.29000        1.0384905E-17
   44.48000        1.0384892E-17
   44.67000        1.0384878E-17
   44.86000        1.0384864E-17
   45.05000        1.0384850E-17
   45.24000        1.0384834E-17
   45.43000        1.0384816E-17
   45.62000        1.0384793E-17
   45.81000        1.0384768E-17
   46.00000        1.0384744E-17
   46.19000        1.0384725E-17
   46.38000        1.0384715E-17
   46.57000        1.0384715E-17
   46.76000        1.0384727E-17
   46.95000        1.0384751E-17
   47.14000        1.0384788E-17
   47.33000        1.0384839E-17
   47.52000        1.0384908E-17
   47.71000        1.0384997E-17
   47.90000        1.0385105E-17
   48.09000        1.0385233E-17
   48.28000        1.0385375E-17
   48.47000        1.0385525E-17
   48.66000        1.0385676E-17
   48.85000        1.0385820E-17
   49.04000        1.0385948E-17
   49.23000        1.0386054E-17
   49.42000        1.0386129E-17
   49.61000        1.0386165E-17
   49.80000        1.0386152E-17
   49.99000        1.0386081E-17
   50.18000        1.0385942E-17
   50.37000        1.0385724E-17
   50.56000        1.0385420E-17
   50.75000        1.0385025E-17
   50.94000        1.0384542E-17
   51.13000        1.0383975E-17
   51.32000        1.0383337E-17
   51.51000        1.0382644E-17
   51.70000        1.0381912E-17
   51.89000        1.0381166E-17
   52.08000        1.0380434E-17
   52.27000        1.0379751E-17
   52.46000        1.0379160E-17
   52.65000        1.0378709E-17
   52.84000        1.0378453E-17
   53.03000        1.0378447E-17
   53.22000        1.0378742E-17
   53.41000        1.0379385E-17
   53.60000        1.0380414E-17
   53.79000        1.0381860E-17
   53.98000        1.0383739E-17
   54.17000        1.0386050E-17
   54.36000        1.0388773E-17
   54.55000        1.0391860E-17
   54.74000        1.0395234E-17
   54.93000        1.0398788E-17
   55.12000        1.0402382E-17
   55.31000        1.0405849E-17
   55.50000        1.0408999E-17
   55.69000        1.0411616E-17
   55.88000        1.0413475E-17
   56.07000        1.0414346E-17
   56.26000        1.0414010E-17
   56.45000        1.0412266E-17
   56.64000        1.0408946E-17
   56.83000        1.0403928E-17
   57.02000        1.0397147E-17
   57.21000        1.0388608E-17
   57.40000        1.0378407E-17
   57.59000        1.0366728E-17
   57.78000        1.0353860E-17
   57.97000        1.0340197E-17
   58.16000        1.0326227E-17
   58.35000        1.0312531E-17
   58.54000        1.0299763E-17
   58.73000        1.0288638E-17
   58.92000        1.0279916E-17
   59.11000        1.0274372E-17
   59.30000        1.0272764E-17
   59.49000        1.0275805E-17
   59.68000        1.0284111E-17
   59.87000        1.0298165E-17
   60.06000        1.0318280E-17
   60.25000        1.0344548E-17
   60.44000        1.0376811E-17
   60.63000        1.0414623E-17
   60.82000        1.0457225E-17
   61.01000        1.0503520E-17
   61.20000        1.0552080E-17
   61.39000        1.0601140E-17
   61.58000        1.0648637E-17
   61.77000        1.0692240E-17
   61.96000        1.0729419E-17
   62.15000        1.0757528E-17
   62.34000        1.0773906E-17
   62.53000        1.0776009E-17
   62.72000        1.0761546E-17
   62.91000        1.0728628E-17
   63.10000        1.0675924E-17
   63.29000        1.0602809E-17
   63.48000        1.0509498E-17
   63.67000        1.0397166E-17
   63.86000        1.0268030E-17
   64.05000        1.0125388E-17
   64.24000        9.9736219E-18
   64.43000        9.8181210E-18
   64.62000        9.6651530E-18
   64.81000        9.5216711E-18
   65.00000        9.3950595E-18
   65.19000        9.2928357E-18
   65.38000        9.2223070E-18
   65.57000        9.1902057E-18
   65.76000        9.2023231E-18
   65.95000        9.2631515E-18
   66.14000        9.3755695E-18
   66.33000        9.5405755E-18
   66.52000        9.7570974E-18
   66.71000        1.0021890E-17
   66.90000        1.0329524E-17
   67.09000        1.0672469E-17
   67.28000        1.1041276E-17
   67.47000        1.1424842E-17
   67.66000        1.1810741E-17
   67.85000        1.2185620E-17
   68.04000        1.2535619E-17
   68.23000        1.2846809E-17
   68.42000        1.3105639E-17
   68.61000        1.3299350E-17
   68.80000        1.3416379E-17
   68.99000        1.3446715E-17
   69.18000        1.3382231E-17
   69.37000        1.3216966E-17
   69.56000        1.2947373E-17
   69.75000        1.2572525E-17
   69.94000        1.2094297E-17
   70.13000        1.1517514E-17
   70.32000        1.0850054E-17
   70.51000        1.0102930E-17
   70.70000        9.2902938E-18
   70.89000        8.4293816E-18
   71.08000        7.5403601E-18
   71.27000        6.6460831E-18
   71.46000        5.7717152E-18
   71.65000        4.9442475E-18
   71.84000        4.1918858E-18
   72.03000        3.5433295E-18
   72.22000        3.0269485E-18
   72.41000        2.6699004E-18
   72.60000        2.4971966E-18
   72.79000        2.5307752E-18
   72.98000        2.7886027E-18
   73.17000        3.2838591E-18
   73.36000        4.0242171E-18
   73.55000        5.0112723E-18
   73.74000        6.2401153E-18
   73.93000        7.6990795E-18
   74.12000        9.3696526E-18
   74.31000        1.1226547E-17
   74.50000        1.3237924E-17
   74.69000        1.5365725E-17
   74.88000        1.7566143E-17
   75.07000        1.9790164E-17
   75.26000        2.1984227E-17
   75.45000        2.4090957E-17
   75.64000        2.6050007E-17
   75.83000        2.7799003E-17
   76.02000        2.9274584E-17
   76.21000        3.0413638E-17
   76.40000        3.1154620E-17
   76.59000        3.1439090E-17
   76.78000        3.1213429E-17
   76.97000        3.0430694E-17
   77.16000        2.9052654E-17
   77.35000        2.7051911E-17
   77.54000        2.4414046E-17
   77.73000        2.1139770E-17
   77.92000        1.7246909E-17
   78.11000        1.2772148E-17
   78.30000        7.7724314E-18
   78.49000        2.3258389E-18
   78.68000       -3.4681133E-18
   78.87000       -9.4889089E-18
   79.06000       -1.5596272E-17
   79.25000       -2.1632247E-17
   79.44000       -2.7424186E-17
   79.63000       -3.2788573E-17
   79.82000       -3.7535673E-17
   80.01000       -4.1474856E-17
   80.20000       -4.4420472E-17
   80.39000       -4.6198087E-17
   80.58000       -4.6650889E-17
   80.77000       -4.5645983E-17
   80.96000       -4.3080400E-17
   81.15000       -3.8886541E-17
   81.34000       -3.3036836E-17
   81.53000       -2.5547417E-17
   81.72000       -1.6480654E-17
   81.91000       -5.9463326E-18
   82.10000        5.8984661E-18
   82.29000        1.8850937E-17
   82.48000        3.2665515E-17
   82.67000        4.7058100E-17
   82.86000        6.1711545E-17
   83.05000        7.6282106E-17
   83.24000        9.0406751E-17
   83.43000        1.0371104E-16
   83.62000        1.1581742E-16
   83.81000        1.2635347E-16
   84.00000        1.3496014E-16
   84.19000        1.4129964E-16
   84.38000        1.4506269E-16
   84.57000        1.4597538E-16
   84.76000        1.4380524E-16
   84.95000        1.3836683E-16
   85.14000        1.2952678E-16
   85.33000        1.1720867E-16
   85.52000        1.0139757E-16
   85.71000        8.2144924E-17
   85.90000        5.9573561E-17
   86.09000        3.3883042E-17
   86.28000        5.3553869E-18
   86.47000       -2.5639165E-17
   86.66000       -5.8636610E-17
   86.85000       -9.3074515E-17
   87.04000       -1.2828890E-16
   87.23000       -1.6351361E-16
   87.42000       -1.9788316E-16
   87.61000       -2.3043995E-16
   87.80000       -2.6014695E-16
   87.99000       -2.8590660E-16
   88.18000       -3.0658630E-16
   88.37000       -3.2105098E-16
   88.56000       -3.2820184E-16
   88.75000       -3.2702118E-16
   88.94000       -3.1662145E-16
   89.13000       -2.9629665E-16
   89.32000       -2.6557421E-16
   89.51000       -2.2426415E-16
   89.70000       -1.7250306E-16
   89.89000       -1.1078981E-16
   90.08000       -4.0010296E-17
   90.27000        3.8551507E-17
   90.46000        1.2321779E-16
   90.65000        2.1193819E-16
   90.84000        3.0232843E-16
   91.03000        3.9172624E-16
   91.22000        4.7726347E-16
   91.41000        5.5595240E-16
   91.60000        6.2478368E-16
   91.79000        6.8083259E-16
   91.98000        7.2136973E-16
   92.17000        7.4397265E-16
   92.36000        7.4663313E-16
   92.55000        7.2785636E-16
   92.74000        6.8674848E-16
   92.93000        6.2308755E-16
   93.12000        5.3737591E-16
   93.31000        4.3086983E-16
   93.50000        3.0558535E-16
   93.69000        1.6427861E-16
   93.88000        1.0399068E-17
   94.07000       -1.5198320E-16
   94.26000       -3.1827644E-16
   94.45000       -4.8349027E-16
   94.64000       -6.4238052E-16
   94.83000       -7.8961301E-16
   95.02000       -9.1994110E-16
   95.21000       -1.0283931E-15
   95.40000       -1.1104623E-15
   95.59000       -1.1622953E-15
   95.78000       -1.1808676E-15
   95.97000       -1.1641430E-15
   96.16000       -1.1112064E-15
   96.35000       -1.0223625E-15
   96.54000       -8.9919504E-16
   96.73000       -7.4457907E-16
   96.92000       -5.6264179E-16
   97.11000       -3.5866991E-16
   97.30000       -1.3896192E-16
   97.49000        8.9370526E-17
   97.68000        3.1865001E-16
   97.87000        5.4091958E-16
   98.06000        7.4825774E-16
   98.25000        9.3311034E-16
   98.44000        1.0886230E-15
   98.63000        1.2089594E-15
   98.82000        1.2895875E-15
   99.01000        1.3275181E-15
   99.20000        1.3214809E-15
   99.39000        1.2720254E-15
   99.58000        1.1815380E-15
   99.77000        1.0541697E-15
   99.96000        8.9567466E-16
   100.1500        7.1316500E-16
   100.3400        5.1479020E-16
   100.5300        3.0935642E-16
   100.7200        1.0590426E-16
   100.9100       -8.6733970E-17
   101.1000       -2.6037438E-16
   101.2900       -4.0789457E-16
   101.4800       -5.2359718E-16
   101.6700       -6.0350340E-16
   101.8600       -6.4555944E-16
   102.0500       -6.4974362E-16
   102.2400       -6.1806729E-16
   102.4300       -5.5446909E-16
   102.6200       -4.6460774E-16
   102.8100       -3.5556341E-16
   103.0000       -2.3546468E-16
   103.1900       -1.1305936E-16
   103.3800        2.7475166E-18
   103.5700        1.0336523E-16
   103.7600        1.8097445E-16
   103.9500        2.2894724E-16
   104.1400        2.4220984E-16
   104.3300        2.1753152E-16
   104.5200        1.5372666E-16
   104.7100        5.1761796E-17
   104.9000       -8.5236125E-17
   105.0900       -2.5206959E-16
   105.2800       -4.4165375E-16
   105.4700       -6.4528526E-16
   105.6600       -8.5298537E-16
   105.8500       -1.0539049E-15
   106.0400       -1.2367754E-15
   106.2300       -1.3903917E-15
   106.4200       -1.5041083E-15
   106.6100       -1.5683336E-15
   106.8000       -1.5750037E-15
   106.9900       -1.5180179E-15
   107.1800       -1.3936209E-15
   107.3700       -1.2007102E-15
   107.5600       -9.4105689E-16
   107.7500       -6.1942064E-16
   107.9400       -2.4354749E-16
   108.1300        1.7596008E-16
   108.3200        6.2590774E-16
   108.5100        1.0909097E-15
   108.7000        1.5539203E-15
   108.8900        1.9968821E-15
   109.0800        2.4014746E-15
   109.2700        2.7499297E-15
   109.4600        3.0258825E-15
   109.6500        3.2152111E-15
   109.8400        3.3068236E-15
   110.0300        3.2933382E-15
   110.2200        3.1716134E-15
   110.4100        2.9430859E-15
   110.6000        2.6138782E-15
   110.7900        2.1946611E-15
   110.9800        1.7002560E-15
   111.1700        1.1489906E-15
   111.3600        5.6183235E-16
   111.5500       -3.8656655E-17
   111.7400       -6.2948678E-16
   111.9300       -1.1884588E-15
   112.1200       -1.6953575E-15
   112.3100       -2.1330407E-15
   112.5000       -2.4883499E-15
   112.6900       -2.7527753E-15
   112.8800       -2.9228282E-15
   113.0700       -3.0000844E-15
   113.2600       -2.9908945E-15
   113.4500       -2.9057770E-15
   113.6400       -2.7585284E-15
   113.8300       -2.5651169E-15
   114.0200       -2.3424347E-15
   114.2100       -2.1069985E-15
   114.4000       -1.8736957E-15
   114.5900       -1.6546697E-15
   114.7800       -1.4584247E-15
   114.9700       -1.2892244E-15
   115.1600       -1.1468267E-15
   115.3500       -1.0265807E-15
   115.5400       -9.1987831E-16
   115.7300       -8.1493103E-16
   115.9200       -6.9781729E-16
   116.1100       -5.5372185E-16
   116.3000       -3.6828016E-16
   116.4900       -1.2892974E-16
   116.6800        1.7383006E-16
   116.8700        5.4535745E-16
   117.0600        9.8604535E-16
   117.2500        1.4908110E-15
   117.4400        2.0489346E-15
   117.6300        2.6442556E-15
   117.8200        3.2557122E-15
   118.0100        3.8581906E-15
   118.2000        4.4236283E-15
   118.3900        4.9223041E-15
   118.5800        5.3242458E-15
   118.7700        5.6006788E-15
   118.9600        5.7254404E-15
   119.1500        5.6763079E-15
   119.3400        5.4361787E-15
   119.5300        4.9940694E-15
   119.7200        4.3459067E-15
   119.9100        3.4950907E-15
   120.1000        2.4528308E-15
   120.2900        1.2382465E-15
   120.4800       -1.2176455E-16
   120.6700       -1.5928914E-15
   120.8600       -3.1340088E-15
   121.0500       -4.6980161E-15
   121.2400       -6.2329237E-15
   121.4300       -7.6831902E-15
   121.6200       -8.9913149E-15
   121.8100       -1.0099674E-14
   122.0000       -1.0952577E-14
   122.1900       -1.1498508E-14
   122.3800       -1.1692485E-14
   122.5700       -1.1498454E-14
   122.7600       -1.0891612E-14
   122.9500       -9.8605401E-15
   123.1400       -8.4089967E-15
   123.3300       -6.5572484E-15
   123.5200       -4.3427926E-15
   123.7100       -1.8203583E-15
   123.9000        9.3890108E-16
   124.0900        3.8490736E-15
   124.2800        6.8120168E-15
   124.4700        9.7206865E-15
   124.6600        1.2463176E-14
   124.8500        1.4927280E-14
   125.0400        1.7005410E-14
   125.2300        1.8599580E-14
   125.4200        1.9626241E-14
   125.6100        2.0020649E-14
   125.8000        1.9740543E-14
   125.9900        1.8768880E-14
   126.1800        1.7115456E-14
   126.3700        1.4817285E-14
   126.5600        1.1937673E-14
   126.7500        8.5640393E-15
   126.9400        4.8045327E-15
   127.1300        7.8366472E-16
   127.3200       -3.3628567E-15
   127.5100       -7.4937920E-15
   127.7000       -1.1468250E-14
   127.8900       -1.5151468E-14
   128.0800       -1.8420195E-14
   128.2700       -2.1167421E-14
   128.4600       -2.3306228E-14
   128.6500       -2.4772605E-14
   128.8400       -2.5527140E-14
   129.0300       -2.5555555E-14
   129.2200       -2.4868149E-14
   129.4100       -2.3498232E-14
   129.6000       -2.1499738E-14
   129.7900       -1.8944156E-14
   129.9800       -1.5917043E-14
   130.1700       -1.2514279E-14
   130.3600       -8.8382899E-15
   130.5500       -4.9943900E-15
   130.7400       -1.0873965E-15
   130.9300        2.7813993E-15
   131.1200        6.5168331E-15
   131.3100        1.0032028E-14
   131.5000        1.3250109E-14
   131.6900        1.6105515E-14
   131.8800        1.8544944E-14
   132.0700        2.0527965E-14
   132.2600        2.2027348E-14
   132.4500        2.3029135E-14
   132.6400        2.3532444E-14
   132.8300        2.3549015E-14
   133.0200        2.3102463E-14
   133.2100        2.2227225E-14
   133.4000        2.0967172E-14
   133.5900        1.9373870E-14
   133.7800        1.7504530E-14
   133.9700        1.5419649E-14
   134.1600        1.3180452E-14
   134.3500        1.0846226E-14
   134.5400        8.4716932E-15
   134.7300        6.1045838E-15
   134.9200        3.7835924E-15
   135.1100        1.5368812E-15
   135.3000       -6.1871040E-16
   135.4900       -2.6776399E-15
   135.6800       -4.6447556E-15
   135.8700       -6.5335073E-15
   136.0600       -8.3633551E-15
   136.2500       -1.0156516E-14
   136.4400       -1.1934279E-14
   136.6300       -1.3713133E-14
   136.8200       -1.5501049E-14
   137.0100       -1.7294204E-14
   137.2000       -1.9074491E-14
   137.3900       -2.0808057E-14
   137.5800       -2.2445094E-14
   137.7700       -2.3921003E-14
   137.9600       -2.5158949E-14
   138.1500       -2.6073722E-14
   138.3400       -2.6576711E-14
   138.5300       -2.6581668E-14
   138.7200       -2.6010930E-14
   138.9100       -2.4801614E-14
   139.1000       -2.2911370E-14
   139.2900       -2.0323233E-14
   139.4800       -1.7049172E-14
   139.6700       -1.3132062E-14
   139.8600       -8.6458279E-15
   140.0500       -3.6937243E-15
   140.2400        1.5952196E-15
   140.4300        7.0713669E-15
   140.6200        1.2570971E-14
   140.8100        1.7923559E-14
   141.0000        2.2959756E-14
   141.1900        2.7519011E-14
   141.3800        3.1456761E-14
   141.5700        3.4650549E-14
   141.7600        3.7004789E-14
   141.9500        3.8453866E-14
   142.1400        3.8963512E-14
   142.3300        3.8530465E-14
   142.5200        3.7180535E-14