  -30.00000       -4.5100167E-19
  -29.81000       -4.5100167E-19
  -29.62000       -4.5100167E-19
  -29.43000       -4.5100167E-19
  -29.24000       -4.5100172E-19
  -29.05000       -4.5100172E-19
  -28.86000       -4.5100172E-19
  -28.67000       -4.5100172E-19
  -28.48000       -4.5100167E-19
  -28.29000       -4.5100162E-19
  -28.10000       -4.5100157E-19
  -27.91000       -4.5100151E-19
  -27.72000       -4.5100146E-19
  -27.53000       -4.5100162E-19
  -27.34000       -4.5100177E-19
  -27.15000       -4.5100182E-19
  -26.96000       -4.5100198E-19
  -26.77000       -4.5100146E-19
  -26.58000       -4.5100146E-19
  -26.39000       -4.5100126E-19
  -26.20000       -4.5100157E-19
  -26.01000       -4.5100146E-19
  -25.82000       -4.5100157E-19
  -25.63000       -4.5100136E-19
  -25.44000       -4.5100110E-19
  -25.25000       -4.5100079E-19
  -25.06000       -4.5100110E-19
  -24.87000       -4.5100146E-19
  -24.68000       -4.5100193E-19
  -24.49000       -4.5100172E-19
  -24.30000       -4.5100141E-19
  -24.11000       -4.5100048E-19
  -23.92000       -4.5100032E-19
  -23.73000       -4.5100038E-19
  -23.54000       -4.5100120E-19
  -23.35000       -4.5100172E-19
  -23.16000       -4.5100219E-19
  -22.97000       -4.5100182E-19
  -22.78000       -4.5100074E-19
  -22.59000       -4.5100027E-19
  -22.40000       -4.5100126E-19
  -22.21000       -4.5100322E-19
  -22.02000       -4.5100472E-19
  -21.83000       -4.5100467E-19
  -21.64000       -4.5100255E-19
  -21.45000       -4.5099970E-19
  -21.26000       -4.5099914E-19
  -21.07000       -4.5100058E-19
  -20.88000       -4.5100255E-19
  -20.69000       -4.5100405E-19
  -20.50000       -4.5100374E-19
  -20.31000       -4.5100188E-19
  -20.12000       -4.5099950E-19
  -19.93000       -4.5099852E-19
  -19.74000       -4.5099960E-19
  -19.55000       -4.5100208E-19
  -19.36000       -4.5100374E-19
  -19.17000       -4.5100358E-19
  -18.98000       -4.5100157E-19
  -18.79000       -4.5100048E-19
  -18.60000       -4.5100131E-19
  -18.41000       -4.5100322E-19
  -18.22000       -4.5100534E-19
  -18.03000       -4.5100575E-19
  -17.84000       -4.5100374E-19
  -17.65000       -4.5100053E-19
  -17.46000       -4.5099908E-19
  -17.27000       -4.5099976E-19
  -17.08000       -4.5100188E-19
  -16.89000       -4.5100400E-19
  -16.70000       -4.5100493E-19
  -16.51000       -4.5100363E-19
  -16.32000       -4.5100141E-19
  -16.13000       -4.5100012E-19
  -15.94000       -4.5100064E-19
  -15.75000       -4.5100224E-19
  -15.56000       -4.5100265E-19
  -15.37000       -4.5100229E-19
  -15.18000       -4.5100084E-19
  -14.99000       -4.5099908E-19
  -14.80000       -4.5099852E-19
  -14.61000       -4.5099996E-19
  -14.42000       -4.5100213E-19
  -14.23000       -4.5100338E-19
  -14.04000       -4.5100255E-19
  -13.85000       -4.5100110E-19
  -13.66000       -4.5100038E-19
  -13.47000       -4.5100151E-19
  -13.28000       -4.5100405E-19
  -13.09000       -4.5100674E-19
  -12.90000       -4.5100792E-19
  -12.71000       -4.5100622E-19
  -12.52000       -4.5100322E-19
  -12.33000       -4.5100032E-19
  -12.14000       -4.5099821E-19
  -11.95000       -4.5099872E-19
  -11.76000       -4.5100032E-19
  -11.57000       -4.5100203E-19
  -11.38000       -4.5100234E-19
  -11.19000       -4.5100141E-19
  -11.00000       -4.5100048E-19
  -10.81000       -4.5100038E-19
  -10.62000       -4.5100074E-19
  -10.43000       -4.5100100E-19
  -10.24000       -4.5100105E-19
  -10.05000       -4.5100053E-19
  -9.860000       -4.5100074E-19
  -9.670000       -4.5100100E-19
  -9.480000       -4.5100193E-19
  -9.290000       -4.5100234E-19
  -9.100000       -4.5100203E-19
  -8.910000       -4.5100198E-19
  -8.720000       -4.5100120E-19
  -8.530000       -4.5100001E-19
  -8.340000       -4.5099955E-19
  -8.150000       -4.5100022E-19
  -7.960000       -4.5100141E-19
  -7.770000       -4.5100327E-19
  -7.580000       -4.5100389E-19
  -7.390000       -4.5100343E-19
  -7.200000       -4.5100306E-19
  -7.010000       -4.5100229E-19
  -6.820000       -4.5100265E-19
  -6.630000       -4.5100363E-19
  -6.440000       -4.5100513E-19
  -6.250000       -4.5100451E-19
  -6.060000       -4.5100265E-19
  -5.870000       -4.5100074E-19
  -5.680000       -4.5099981E-19
  -5.490000       -4.5099929E-19
  -5.300000       -4.5099862E-19
  -5.110000       -4.5099903E-19
  -4.920000       -4.5099970E-19
  -4.730000       -4.5100084E-19
  -4.540000       -4.5100244E-19
  -4.350000       -4.5100467E-19
  -4.160000       -4.5100699E-19
  -3.970000       -4.5100813E-19
  -3.780000       -4.5100648E-19
  -3.590000       -4.5100244E-19
  -3.400000       -4.5099800E-19
  -3.210000       -4.5099552E-19
  -3.020000       -4.5099598E-19
  -2.830000       -4.5099898E-19
  -2.640000       -4.5100157E-19
  -2.450000       -4.5100312E-19
  -2.260000       -4.5100224E-19
  -2.070000       -4.5100141E-19
  -1.880000       -4.5100151E-19
  -1.690000       -4.5100384E-19
  -1.500000       -4.5100617E-19
  -1.310000       -4.5100741E-19
  -1.120000       -4.5100632E-19
 -0.9300000       -4.5100296E-19
 -0.7400000       -4.5100012E-19
 -0.5500000       -4.5099934E-19
 -0.3600000       -4.5100105E-19
 -0.1700000       -4.5100431E-19
  2.0000000E-02   -4.5100668E-19
  0.2100000       -4.5100663E-19
  0.4000000       -4.5100400E-19
  0.5900000       -4.5100079E-19
  0.7800000       -4.5099929E-19
  0.9700000       -4.5099965E-19
   1.160000       -4.5100100E-19
   1.350000       -4.5100043E-19
   1.540000       -4.5099748E-19
   1.730000       -4.5099355E-19
   1.920000       -4.5099076E-19
   2.110000       -4.5099138E-19
   2.300000       -4.5099386E-19
   2.490000       -4.5099738E-19
   2.680000       -4.5100048E-19
   2.870000       -4.5100234E-19
   3.060000       -4.5100255E-19
   3.250000       -4.5100234E-19
   3.440000       -4.5100374E-19
   3.630000       -4.5100648E-19
   3.820000       -4.5100891E-19
   4.010000       -4.5101082E-19
   4.200000       -4.5101108E-19
   4.390000       -4.5101010E-19
   4.580000       -4.5100787E-19
   4.770000       -4.5100586E-19
   4.960000       -4.5100389E-19
   5.150000       -4.5100234E-19
   5.340000       -4.5100022E-19
   5.530000       -4.5099795E-19
   5.720000       -4.5099593E-19
   5.910000       -4.5099438E-19
   6.100000       -4.5099490E-19
   6.290000       -4.5099640E-19
   6.480000       -4.5099774E-19
   6.670000       -4.5099950E-19
   6.860000       -4.5100141E-19
   7.050000       -4.5100332E-19
   7.240000       -4.5100446E-19
   7.430000       -4.5100487E-19
   7.620000       -4.5100405E-19
   7.810000       -4.5100270E-19
   8.000000       -4.5100213E-19
   8.190000       -4.5100182E-19
   8.380000       -4.5100260E-19
   8.570000       -4.5100224E-19
   8.760000       -4.5100157E-19
   8.950000       -4.5100131E-19
   9.140000       -4.5100131E-19
   9.330000       -4.5100219E-19
   9.520000       -4.5100353E-19
   9.710000       -4.5100400E-19
   9.900000       -4.5100312E-19
   10.09000       -4.5100110E-19
   10.28000       -4.5099790E-19
   10.47000       -4.5099526E-19
   10.66000       -4.5099371E-19
   10.85000       -4.5099428E-19
   11.04000       -4.5099562E-19
   11.23000       -4.5099784E-19
   11.42000       -4.5100027E-19
   11.61000       -4.5100208E-19
   11.80000       -4.5100338E-19
   11.99000       -4.5100462E-19
   12.18000       -4.5100575E-19
   12.37000       -4.5100612E-19
   12.56000       -4.5100529E-19
   12.75000       -4.5100369E-19
   12.94000       -4.5100043E-19
   13.13000       -4.5099795E-19
   13.32000       -4.5099665E-19
   13.51000       -4.5099562E-19
   13.70000       -4.5099562E-19
   13.89000       -4.5099547E-19
   14.08000       -4.5099541E-19
   14.27000       -4.5099603E-19
   14.46000       -4.5099872E-19
   14.65000       -4.5100281E-19
   14.84000       -4.5100787E-19
   15.03000       -4.5101211E-19
   15.22000       -4.5101403E-19
   15.41000       -4.5101392E-19
   15.60000       -4.5101304E-19
   15.79000       -4.5101191E-19
   15.98000       -4.5101097E-19
   16.17000       -4.5100953E-19
   16.36000       -4.5100772E-19
   16.55000       -4.5100513E-19
   16.74000       -4.5100286E-19
   16.93000       -4.5100012E-19
   17.12000       -4.5099815E-19
   17.31000       -4.5099629E-19
   17.50000       -4.5099417E-19
   17.69000       -4.5098936E-19
   17.88000       -4.5098404E-19
   18.07000       -4.5097990E-19
   18.26000       -4.5097965E-19
   18.45000       -4.5098595E-19
   18.64000       -4.5100064E-19
   18.83000       -4.5102230E-19
   19.02000       -4.5104747E-19
   19.21000       -4.5106991E-19
   19.40000       -4.5108154E-19
   19.59000       -4.5107849E-19
   19.78000       -4.5105988E-19
   19.97000       -4.5102866E-19
   20.16000       -4.5099107E-19
   20.35000       -4.5095106E-19
   20.54000       -4.5091135E-19
   20.73000       -4.5087185E-19
   20.92000       -4.5083334E-19
   21.11000       -4.5080108E-19
   21.30000       -4.5078939E-19
   21.49000       -4.5081881E-19
   21.68000       -4.5090603E-19
   21.87000       -4.5105626E-19
   22.06000       -4.5125427E-19
   22.25000       -4.5146184E-19
   22.44000       -4.5162676E-19
   22.63000       -4.5169810E-19
   22.82000       -4.5164253E-19
   23.01000       -4.5145465E-19
   23.20000       -4.5115857E-19
   23.39000       -4.5079922E-19
   23.58000       -4.5042755E-19
   23.77000       -4.5008345E-19
   23.96000       -4.4979409E-19
   24.15000       -4.4957680E-19
   24.34000       -4.4945220E-19
   24.53000       -4.4945277E-19
   24.72000       -4.4962090E-19
   24.91000       -4.4999499E-19
   25.10000       -4.5058648E-19
   25.29000       -4.5136227E-19
   25.48000       -4.5223949E-19
   25.67000       -4.5310839E-19
   25.86000       -4.5386656E-19
   26.05000       -4.5444584E-19
   26.24000       -4.5482454E-19
   26.43000       -4.5500600E-19
   26.62000       -4.5498030E-19
   26.81000       -4.5469146E-19
   27.00000       -4.5403442E-19
   27.19000       -4.5289379E-19
   27.38000       -4.5121482E-19
   27.57000       -4.4906333E-19
   27.76000       -4.4664201E-19
   27.95000       -4.4424546E-19
   28.14000       -4.4216340E-19
   28.33000       -4.4058757E-19
   28.52000       -4.3957298E-19
   28.71000       -4.3908448E-19
   28.90000       -4.3910237E-19
   29.09000       -4.3971918E-19
   29.28000       -4.4115688E-19
   29.47000       -4.4366789E-19
   29.66000       -4.4735153E-19
   29.85000       -4.5199506E-19
   30.04000       -4.5705544E-19
   30.23000       -4.6184037E-19
   30.42000       -4.6583633E-19
   30.61000       -4.6902025E-19
   30.80000       -4.7195881E-19
   30.99000       -4.7556826E-19
   31.18000       -4.8058408E-19
   31.37000       -4.8695900E-19
   31.56000       -4.9351425E-19
   31.75000       -4.9807678E-19
   31.94000       -4.9812946E-19
   32.13000       -4.9172532E-19
   32.32000       -4.7824300E-19
   32.51000       -4.5860087E-19
   32.70000       -4.3480444E-19
   32.89000       -4.0906938E-19
   33.08000       -3.8302526E-19
   33.27000       -3.5750573E-19
   33.46000       -3.3310928E-19
   33.65000       -3.1125274E-19
   33.84000       -2.9503390E-19
   34.03000       -2.8918604E-19
   34.22000       -2.9881564E-19
   34.41000       -3.2727344E-19
   34.60000       -3.7414641E-19
   34.79000       -4.3450029E-19
   34.98000       -5.0006299E-19
   35.17000       -5.6208603E-19
   35.36000       -6.1467647E-19
   35.55000       -6.5694260E-19
   35.74000       -6.9268973E-19
   35.93000       -7.2756268E-19
   36.12000       -7.6487484E-19
   36.31000       -8.0223233E-19
   36.50000       -8.3086813E-19
   36.69000       -8.3834135E-19
   36.88000       -8.1352314E-19
   37.07000       -7.5147187E-19
   37.26000       -6.5566249E-19
   37.45000       -5.3630477E-19
   37.64000       -4.0554548E-19
   37.83000       -2.7215493E-19
   38.02000       -1.3875141E-19
   38.21000       -3.3771018E-21
   38.40000        1.3522742E-19
   38.59000        2.7161179E-19
   38.78000        3.9071328E-19
   38.97000        4.7060616E-19
   39.16000        4.9046160E-19
   39.35000        4.4014373E-19
   39.54000        3.2631365E-19
   39.73000        1.7106629E-19
   39.92000        2.6922800E-21
   40.11000       -1.5761526E-19
   40.30000       -3.0660553E-19
   40.49000       -4.6140445E-19
   40.68000       -6.5137216E-19
   40.87000       -9.0254390E-19
   41.06000       -1.2219164E-18
   41.25000       -1.5894328E-18
   41.44000       -1.9620158E-18
   41.63000       -2.2880004E-18
   41.82000       -2.5249256E-18
   42.01000       -2.6517800E-18
   42.20000       -2.6697085E-18
   42.39000       -2.5914394E-18
   42.58000       -2.4260717E-18
   42.77000       -2.1687061E-18
   42.96000       -1.8019205E-18
   43.15000       -1.3093495E-18
   43.34000       -6.9415105E-19
   43.53000        8.7164739E-21
   43.72000        7.3524926E-19
   43.91000        1.4113417E-18
   44.10000        1.9798667E-18
   44.29000        2.4222185E-18
   44.48000        2.7621744E-18
   44.67000        3.0484538E-18
   44.86000        3.3237087E-18
   45.05000        3.5957889E-18
   45.24000        3.8271397E-18
   45.43000        3.9493594E-18
   45.62000        3.8964376E-18
   45.81000        3.6391431E-18
   46.00000        3.2007431E-18
   46.19000        2.6428722E-18
   46.38000        2.0260461E-18
   46.57000        1.3641425E-18
   46.76000        5.9799637E-19
   46.95000       -3.9388588E-19
   47.14000       -1.7467294E-18
   47.33000       -3.5413682E-18
   47.52000       -5.7461243E-18
   47.71000       -8.1952613E-18
   47.90000       -1.0614700E-17
   48.09000       -1.2684524E-17
   48.28000       -1.4112237E-17
   48.47000       -1.4688678E-17
   48.66000       -1.4310491E-17
   48.85000       -1.2972396E-17
   49.04000       -1.0747743E-17
   49.23000       -7.7783383E-18
   49.42000       -4.2824183E-18
   49.61000       -5.7011335E-19
   49.80000        2.9591042E-18
   49.99000        5.8621173E-18
   50.18000        7.7479981E-18
   50.37000        8.4025296E-18
   50.56000        7.8960287E-18
   50.75000        6.6235222E-18
   50.94000        5.2449815E-18
   51.13000        4.5300261E-18
   51.32000        5.1501708E-18
   51.51000        7.4845246E-18
   51.70000        1.1500809E-17
   51.89000        1.6744629E-17
   52.08000        2.2429864E-17
   52.27000        2.7590566E-17
   52.46000        3.1244078E-17
   52.65000        3.2528246E-17
   52.84000        3.0802118E-17
   53.03000        2.5722473E-17
   53.22000        1.7313367E-17
   53.41000        6.0305838E-18
   53.60000       -7.2027596E-18
   53.79000       -2.1030819E-17
   53.98000       -3.3805611E-17
   54.17000       -4.3837859E-17
   54.36000       -4.9716443E-17
   54.55000       -5.0616720E-17
   54.74000       -4.6507628E-17
   54.93000       -3.8193099E-17
   55.12000       -2.7174612E-17
   55.31000       -1.5376937E-17
   55.50000       -4.8137006E-18
   55.69000        2.7290922E-18
   55.88000        5.9407830E-18
   56.07000        4.1515860E-18
   56.26000       -2.5725226E-18
   56.45000       -1.3393492E-17
   56.64000       -2.6731531E-17
   56.83000       -4.0392136E-17
   57.02000       -5.1821701E-17
   57.21000       -5.8494242E-17
   57.40000       -5.8377928E-17
   57.59000       -5.0377073E-17
   57.78000       -3.4621750E-17
   57.97000       -1.2502719E-17
   58.16000        1.3579680E-17
   58.35000        4.0693524E-17
   58.54000        6.5947888E-17
   58.73000        8.7003340E-17
   58.92000        1.0239615E-16
   59.11000        1.1162510E-16
   59.30000        1.1502973E-16
   59.49000        1.1354050E-16
   59.68000        1.0838999E-16
   59.87000        1.0084559E-16
   60.06000        9.1986646E-17
   60.25000        8.2525480E-17
   60.44000        7.2678855E-17
   60.63000        6.2119656E-17
   60.82000        5.0055290E-17
   61.01000        3.5463863E-17
   61.20000        1.7466934E-17
   61.39000       -4.2522828E-18
   61.58000       -2.9127584E-17
   61.77000       -5.5625130E-17
   61.96000       -8.1470031E-17
   62.15000       -1.0414902E-16
   62.34000       -1.2154563E-16
   62.53000       -1.3250576E-16
   62.72000       -1.3714960E-16
   62.91000       -1.3683357E-16
   63.10000       -1.3378671E-16
   63.29000       -1.3054407E-16
   63.48000       -1.2934201E-16
   63.67000       -1.3161559E-16
   63.86000       -1.3767324E-16
   64.05000       -1.4655792E-16
   64.24000       -1.5607391E-16
   64.43000       -1.6296637E-16
   64.62000       -1.6326992E-16
   64.81000       -1.5284965E-16
   65.00000       -1.2812439E-16
   65.19000       -8.6882611E-17
   65.38000       -2.9021976E-17
   65.57000        4.2996885E-17
   65.76000        1.2414843E-16
   65.95000        2.0734353E-16
   66.14000        2.8433623E-16
   66.33000        3.4682436E-16
   66.52000        3.8750190E-16
   66.71000        4.0088629E-16
   66.90000        3.8386564E-16
   67.09000        3.3602186E-16
   67.28000        2.5982534E-16
   67.47000        1.6074643E-16
   67.66000        4.7222553E-17
   67.85000       -6.9674866E-17
   68.04000       -1.7704163E-16
   68.23000       -2.6147986E-16
   68.42000       -3.1086345E-16
   68.61000       -3.1623313E-16
   68.80000       -2.7341726E-16
   68.99000       -1.8400177E-16
   69.18000       -5.5427388E-17
   69.37000        9.9790685E-17
   69.56000        2.6553189E-16
   69.75000        4.2393628E-16
   69.94000        5.5738505E-16
   70.13000        6.5038678E-16
   70.32000        6.9124379E-16
   70.51000        6.7339622E-16
   70.70000        5.9631284E-16
   70.89000        4.6574689E-16
   71.08000        2.9318084E-16
   71.27000        9.4389772E-17
   71.46000       -1.1274838E-16
   71.65000       -3.1083965E-16
   71.84000       -4.8544713E-16
   72.03000       -6.2693202E-16
   72.22000       -7.3131379E-16
   72.41000       -8.0006714E-16
   72.60000       -8.3905046E-16
   72.79000       -8.5692825E-16
   72.98000       -8.6346131E-16
   73.17000       -8.6792930E-16
   73.36000       -8.7779300E-16
   73.55000       -8.9759997E-16
   73.74000       -9.2814006E-16
   73.93000       -9.6593033E-16
   74.12000       -1.0031951E-15
   74.31000       -1.0285116E-15
   74.50000       -1.0281766E-15
   74.69000       -9.8815393E-16
   74.88000       -8.9625647E-16
   75.07000       -7.4411638E-16
   75.26000       -5.2854507E-16
   75.45000       -2.5206941E-16
   75.64000        7.7326359E-17
   75.83000        4.4703657E-16
   76.02000        8.4095909E-16
   76.21000        1.2406963E-15
   76.40000        1.6267463E-15
   76.59000        1.9797174E-15
   76.78000        2.2816084E-15
   76.97000        2.5171054E-15
   77.16000        2.6747202E-15
   77.35000        2.7475301E-15
   77.54000        2.7333408E-15
   77.73000        2.6343002E-15
   77.92000        2.4562092E-15
   78.11000        2.2079097E-15
   78.30000        1.9010505E-15
   78.49000        1.5502797E-15
   78.68000        1.1735802E-15
   78.87000        7.9223214E-16
   79.06000        4.2990271E-16
   79.25000        1.1061888E-16
   79.44000       -1.4418559E-16
   79.63000       -3.1897818E-16
   79.82000       -4.0700669E-16
   80.01000       -4.1206440E-16
   80.20000       -3.4873667E-16
   80.39000       -2.4113628E-16
   80.58000       -1.2042503E-16
   80.77000       -2.1586954E-17
   80.96000        2.0135796E-17
   81.15000       -2.7148276E-17
   81.34000       -1.8851213E-16
   81.53000       -4.7907628E-16
   81.72000       -9.0154153E-16
   81.91000       -1.4448548E-15
   82.10000       -2.0845222E-15
   82.29000       -2.7848760E-15
   82.48000       -3.5031917E-15
   82.67000       -4.1950526E-15
   82.86000       -4.8199673E-15
   83.05000       -5.3461895E-15
   83.24000       -5.7539325E-15
   83.43000       -6.0366768E-15
   83.62000       -6.2007119E-15
   83.81000       -6.2633368E-15
   84.00000       -6.2501104E-15
   84.19000       -6.1914119E-15
   84.38000       -6.1183909E-15
   84.57000       -6.0584709E-15
   84.76000       -6.0307547E-15
   84.95000       -6.0419932E-15
   85.14000       -6.0839103E-15
   85.33000       -6.1326164E-15
   85.52000       -6.1504083E-15
   85.71000       -6.0897908E-15
   85.90000       -5.8990009E-15
   86.09000       -5.5280153E-15
   86.28000       -4.9340021E-15
   86.47000       -4.0854309E-15
   86.66000       -2.9644567E-15
   86.85000       -1.5675953E-15
   87.04000        9.5037904E-17
   87.23000        2.0016367E-15
   87.42000        4.1215501E-15
   87.61000        6.4189245E-15
   87.80000        8.8568916E-15
   87.99000        1.1401734E-14
   88.18000        1.4026234E-14
   88.37000        1.6711294E-14
   88.56000        1.9445312E-14
   88.75000        2.2221377E-14
   88.94000        2.5033097E-14
   89.13000        2.7870125E-14
   89.32000        3.0714292E-14
   89.51000        3.3536799E-14
   89.70000        3.6296087E-14
   89.89000        3.8935987E-14
   90.08000        4.1383665E-14
   90.27000        4.3547688E-14
   90.46000        4.5316984E-14
   90.65000        4.6561842E-14
   90.84000        4.7137865E-14
   91.03000        4.6893204E-14
   91.22000        4.5678549E-14
   91.41000        4.3358593E-14
   91.60000        3.9823278E-14
   91.79000        3.4997440E-14
   91.98000        2.8847947E-14
   92.17000        2.1388212E-14
   92.36000        1.2680514E-14
   92.55000        2.8366147E-15
   92.74000       -7.9832660E-15
   92.93000       -1.9573690E-14
   93.12000       -3.1690260E-14
   93.31000       -4.4059384E-14
   93.50000       -5.6390998E-14
   93.69000       -6.8392645E-14
   93.88000       -7.9782569E-14
   94.07000       -9.0299865E-14
   94.26000       -9.9710903E-14
   94.45000       -1.0781232E-13
   94.64000       -1.1443202E-13
   94.83000       -1.1942961E-13
   95.02000       -1.2269668E-13
   95.21000       -1.2415706E-13
   95.40000       -1.2376581E-13
   95.59000       -1.2150648E-13
   95.78000       -1.1738645E-13
   95.97000       -1.1143107E-13
   96.16000       -1.0367869E-13
   96.35000       -9.4177900E-14
   96.54000       -8.2988866E-14
   96.73000       -7.0188809E-14
   96.92000       -5.5880742E-14
   97.11000       -4.0203196E-14
   97.30000       -2.3338461E-14
   97.49000       -5.5172088E-15
   97.68000        1.2981378E-14
   97.87000        3.1833694E-14
   98.06000        5.0679021E-14
   98.25000        6.9129239E-14
   98.44000        8.6780463E-14
   98.63000        1.0322685E-13
   98.82000        1.1807619E-13
   99.01000        1.3096623E-13
   99.20000        1.4157992E-13
   99.39000        1.4965720E-13
   99.58000        1.5500203E-13
   99.77000        1.5748473E-13
   99.96000        1.5704061E-13
   100.1500        1.5366701E-13
   100.3400        1.4742001E-13
   100.5300        1.3841128E-13
   100.7200        1.2680465E-13
   100.9100        1.1281176E-13
   101.1000        9.6685931E-14
   101.2900        7.8714548E-14
   101.4800        5.9210693E-14
   101.6700        3.8505416E-14
   101.8600        1.6941772E-14
   102.0500       -5.1285998E-15
   102.2400       -2.7347124E-14
   102.4300       -4.9349979E-14
   102.6200       -7.0772279E-14
   102.8100       -9.1256660E-14
   103.0000       -1.1046666E-13
   103.1900       -1.2810334E-13
   103.3800       -1.4392213E-13
   103.5700       -1.5774768E-13
   103.7600       -1.6948502E-13
   103.9500       -1.7912825E-13
   104.1400       -1.8676750E-13
   104.3300       -1.9259546E-13
   104.5200       -1.9691284E-13
   104.7100       -2.0013055E-13
   104.9000       -2.0276654E-13
   105.0900       -2.0543632E-13
   105.2800       -2.0883791E-13
   105.4700       -2.1373344E-13
   105.6600       -2.2093047E-13
   105.8500       -2.3126499E-13
   106.0400       -2.4558637E-13
   106.2300       -2.6474377E-13
   106.4200       -2.8957278E-13
   106.6100       -3.2087980E-13
   106.8000       -3.5942411E-13
   106.9900       -4.0589832E-13
   107.1800       -4.6091034E-13
   107.3700       -5.2497113E-13
   107.5600       -5.9849093E-13
   107.7500       -6.8178693E-13
   107.9400       -7.7509928E-13
   108.1300       -8.7861305E-13
   108.3200       -9.9248019E-13
   108.5100       -1.1168396E-12
   108.7000       -1.2518323E-12
   108.8900       -1.3976128E-12
   109.0800       -1.5543592E-12
   109.2700       -1.7222769E-12
   109.4600       -1.9016019E-12
   109.6500       -2.0925997E-12
   109.8400       -2.2955561E-12
   110.0300       -2.5107707E-12
   110.2200       -2.7385468E-12
   110.4100       -2.9791892E-12
   110.6000       -3.2329994E-12
   110.7900       -3.5002834E-12
   110.9800       -3.7813572E-12
   111.1700       -4.0765559E-12
   111.3600       -4.3862448E-12
   111.5500       -4.7108272E-12
   111.7400       -5.0507541E-12
   111.9300       -5.4065303E-12
   112.1200       -5.7787173E-12
   112.3100       -6.1679342E-12
   112.5000       -6.5748505E-12
   112.6900       -7.0001743E-12
   112.8800       -7.4446387E-12
   113.0700       -7.9089643E-12
   113.2600       -8.3938264E-12
   113.4500       -8.8998314E-12
   113.6400       -9.4274684E-12
   113.8300       -9.9771059E-12
   114.0200       -1.0548971E-11
   114.2100       -1.1143162E-11
   114.4000       -1.1759651E-11
   114.5900       -1.2398313E-11
   114.7800       -1.3058937E-11
   114.9700       -1.3741250E-11
   115.1600       -1.4444954E-11
   115.3500       -1.5169737E-11
   115.5400       -1.5915304E-11
   115.7300       -1.6681384E-11
   115.9200       -1.7467723E-11
   116.1100       -1.8274073E-11
   116.3000       -1.9100155E-11
   116.4900       -1.9945644E-11
   116.6800       -2.0810152E-11
   116.8700       -2.1693222E-11
   117.0600       -2.2594347E-11
   117.2500       -2.3512994E-11
   117.4400       -2.4448625E-11
   117.6300       -2.5400753E-11
   117.8200       -2.6368930E-11
   118.0100       -2.7352778E-11
   118.2000       -2.8351994E-11
   118.3900       -2.9366329E-11
   118.5800       -3.0395610E-11
   118.7700       -3.1439712E-11
   118.9600       -3.2498559E-11
   119.1500       -3.3572128E-11
   119.3400       -3.4660420E-11
   119.5300       -3.5763437E-11
   119.7200       -3.6881175E-11
   119.9100       -3.8013558E-11
   120.1000       -3.9160467E-11
   120.2900       -4.0321656E-11
   120.4800       -4.1496782E-11
   120.6700       -4.2685338E-11
   120.8600       -4.3886658E-11
   121.0500       -4.5099879E-11
   121.2400       -4.6323934E-11
   121.4300       -4.7557552E-11
   121.6200       -4.8799246E-11
   121.8100       -5.0047352E-11
   122.0000       -5.1300058E-11
   122.1900       -5.2555446E-11
   122.3800       -5.3811545E-11
   122.5700       -5.5066313E-11
   122.7600       -5.6317714E-11
   122.9500       -5.7563686E-11
   123.1400       -5.8802130E-11
   123.3300       -6.0030939E-11
   123.5200       -6.1248021E-11
   123.7100       -6.2451315E-11
   123.9000       -6.3638872E-11
   124.0900       -6.4808811E-11
   124.2800       -6.5959384E-11
   124.4700       -6.7089008E-11
   124.6600       -6.8196268E-11
   124.8500       -6.9279943E-11
   125.0400       -7.0339026E-11
   125.2300       -7.1372706E-11
   125.4200       -7.2380352E-11
   125.6100       -7.3361504E-11
   125.8000       -7.4315810E-11
   125.9900       -7.5243020E-11
   126.1800       -7.6142904E-11
   126.3700       -7.7015234E-11
   126.5600       -7.7859795E-11
   126.7500       -7.8676343E-11
   126.9400       -7.9464629E-11
   127.1300       -8.0224348E-11
   127.3200       -8.0955131E-11
   127.5100       -8.1656508E-11
   127.7000       -8.2327901E-11
   127.8900       -8.2968549E-11
   128.0800       -8.3577568E-11
   128.2700       -8.4153899E-11
   128.4600       -8.4696340E-11
   128.6500       -8.5203469E-11
   128.8400       -8.5673690E-11
   129.0300       -8.6105192E-11
   129.2200       -8.6495866E-11
   129.4100       -8.6843394E-11
   129.6000       -8.7145229E-11
   129.7900       -8.7398637E-11
   129.9800       -8.7600663E-11
   130.1700       -8.7748316E-11
   130.3600       -8.7838646E-11
   130.5500       -8.7868733E-11
   130.7400       -8.7835780E-11
   130.9300       -8.7737241E-11
   131.1200       -8.7570846E-11
   131.3100       -8.7334653E-11
   131.5000       -8.7027156E-11
   131.6900       -8.6647238E-11
   131.8800       -8.6194163E-11
   132.0700       -8.5667563E-11
   132.2600       -8.5067425E-11
   132.4500       -8.4394026E-11
   132.6400       -8.3647811E-11
   132.8300       -8.2829479E-11
   133.0200       -8.1939747E-11
   133.2100       -8.0979459E-11
   133.4000       -7.9949471E-11
   133.5900       -7.8850620E-11
   133.7800       -7.7683651E-11
   133.9700       -7.6449173E-11
   134.1600       -7.5147576E-11
   134.3500       -7.3779045E-11
   134.5400       -7.2343576E-11
   134.7300       -7.0840993E-11
   134.9200       -6.9271033E-11
   135.1100       -6.7633336E-11
   135.3000       -6.5927520E-11
   135.4900       -6.4153155E-11
   135.6800       -6.2309845E-11
   135.8700       -6.0397229E-11
   136.0600       -5.8415085E-11
   136.2500       -5.6363268E-11
   136.4400       -5.4241733E-11
   136.6300       -5.2050513E-11
   136.8200       -4.9789672E-11
   137.0100       -4.7459342E-11
   137.2000       -4.5059654E-11
   137.3900       -4.2590768E-11
   137.5800       -4.0052916E-11
   137.7700       -3.7446341E-11
   137.9600       -3.4771304E-11
   138.1500       -3.2028102E-11
   138.3400       -2.9217007E-11
   138.5300       -2.6338241E-11
   138.7200       -2.3392016E-11
   138.9100       -2.0378475E-11
   139.1000       -1.7297722E-11
   139.2900       -1.4149841E-11
   139.4800       -1.0934903E-11
   139.6700       -7.6530058E-12
   139.8600       -4.3043008E-12
   140.0500       -8.8900182E-13
   140.2400        2.5925759E-12
   140.4300        6.1400026E-12
   140.6200        9.7527264E-12
   140.8100        1.3430052E-11
   141.0000        1.7171105E-11
   141.1900        2.0974790E-11
   141.3800        2.4839799E-11
   141.5700        2.8764614E-11
   141.7600        3.2747537E-11
   141.9500        3.6786720E-11
   142.1400        4.0880192E-11
   142.3300        4.5025879E-11
   142.5200        4.9221609E-11