  -30.00000        1.0967439E-17
  -29.81000        1.0967439E-17
  -29.62000        1.0967439E-17
  -29.43000        1.0967439E-17
  -29.24000        1.0967440E-17
  -29.05000        1.0967441E-17
  -28.86000        1.0967441E-17
  -28.67000        1.0967441E-17
  -28.48000        1.0967440E-17
  -28.29000        1.0967439E-17
  -28.10000        1.0967438E-17
  -27.91000        1.0967436E-17
  -27.72000        1.0967436E-17
  -27.53000        1.0967438E-17
  -27.34000        1.0967440E-17
  -27.15000        1.0967442E-17
  -26.96000        1.0967443E-17
  -26.77000        1.0967441E-17
  -26.58000        1.0967440E-17
  -26.39000        1.0967437E-17
  -26.20000        1.0967435E-17
  -26.01000        1.0967435E-17
  -25.82000        1.0967436E-17
  -25.63000        1.0967439E-17
  -25.44000        1.0967441E-17
  -25.25000        1.0967442E-17
  -25.06000        1.0967441E-17
  -24.87000        1.0967439E-17
  -24.68000        1.0967436E-17
  -24.49000        1.0967435E-17
  -24.30000        1.0967435E-17
  -24.11000        1.0967437E-17
  -23.92000        1.0967440E-17
  -23.73000        1.0967443E-17
  -23.54000        1.0967445E-17
  -23.35000        1.0967443E-17
  -23.16000        1.0967441E-17
  -22.97000        1.0967437E-17
  -22.78000        1.0967435E-17
  -22.59000        1.0967434E-17
  -22.40000        1.0967436E-17
  -22.21000        1.0967439E-17
  -22.02000        1.0967442E-17
  -21.83000        1.0967444E-17
  -21.64000        1.0967444E-17
  -21.45000        1.0967441E-17
  -21.26000        1.0967438E-17
  -21.07000        1.0967436E-17
  -20.88000        1.0967435E-17
  -20.69000        1.0967436E-17
  -20.50000        1.0967440E-17
  -20.31000        1.0967443E-17
  -20.12000        1.0967445E-17
  -19.93000        1.0967445E-17
  -19.74000        1.0967443E-17
  -19.55000        1.0967440E-17
  -19.36000        1.0967436E-17
  -19.17000        1.0967436E-17
  -18.98000        1.0967436E-17
  -18.79000        1.0967438E-17
  -18.60000        1.0967441E-17
  -18.41000        1.0967444E-17
  -18.22000        1.0967445E-17
  -18.03000        1.0967443E-17
  -17.84000        1.0967440E-17
  -17.65000        1.0967435E-17
  -17.46000        1.0967432E-17
  -17.27000        1.0967432E-17
  -17.08000        1.0967436E-17
  -16.89000        1.0967441E-17
  -16.70000        1.0967445E-17
  -16.51000        1.0967445E-17
  -16.32000        1.0967442E-17
  -16.13000        1.0967438E-17
  -15.94000        1.0967434E-17
  -15.75000        1.0967432E-17
  -15.56000        1.0967434E-17
  -15.37000        1.0967438E-17
  -15.18000        1.0967443E-17
  -14.99000        1.0967446E-17
  -14.80000        1.0967446E-17
  -14.61000        1.0967444E-17
  -14.42000        1.0967439E-17
  -14.23000        1.0967435E-17
  -14.04000        1.0967433E-17
  -13.85000        1.0967434E-17
  -13.66000        1.0967437E-17
  -13.47000        1.0967443E-17
  -13.28000        1.0967447E-17
  -13.09000        1.0967449E-17
  -12.90000        1.0967446E-17
  -12.71000        1.0967441E-17
  -12.52000        1.0967434E-17
  -12.33000        1.0967430E-17
  -12.14000        1.0967430E-17
  -11.95000        1.0967435E-17
  -11.76000        1.0967441E-17
  -11.57000        1.0967445E-17
  -11.38000        1.0967446E-17
  -11.19000        1.0967442E-17
  -11.00000        1.0967435E-17
  -10.81000        1.0967429E-17
  -10.62000        1.0967426E-17
  -10.43000        1.0967426E-17
  -10.24000        1.0967432E-17
  -10.05000        1.0967439E-17
  -9.860000        1.0967445E-17
  -9.670000        1.0967447E-17
  -9.480000        1.0967445E-17
  -9.290000        1.0967441E-17
  -9.100000        1.0967437E-17
  -8.910000        1.0967435E-17
  -8.720000        1.0967435E-17
  -8.530000        1.0967437E-17
  -8.340000        1.0967441E-17
  -8.150000        1.0967444E-17
  -7.960000        1.0967445E-17
  -7.770000        1.0967441E-17
  -7.580000        1.0967434E-17
  -7.390000        1.0967427E-17
  -7.200000        1.0967423E-17
  -7.010000        1.0967424E-17
  -6.820000        1.0967429E-17
  -6.630000        1.0967436E-17
  -6.440000        1.0967443E-17
  -6.250000        1.0967445E-17
  -6.060000        1.0967445E-17
  -5.870000        1.0967441E-17
  -5.680000        1.0967438E-17
  -5.490000        1.0967437E-17
  -5.300000        1.0967440E-17
  -5.110000        1.0967445E-17
  -4.920000        1.0967448E-17
  -4.730000        1.0967450E-17
  -4.540000        1.0967449E-17
  -4.350000        1.0967445E-17
  -4.160000        1.0967441E-17
  -3.970000        1.0967438E-17
  -3.780000        1.0967436E-17
  -3.590000        1.0967436E-17
  -3.400000        1.0967438E-17
  -3.210000        1.0967441E-17
  -3.020000        1.0967444E-17
  -2.830000        1.0967445E-17
  -2.640000        1.0967443E-17
  -2.450000        1.0967439E-17
  -2.260000        1.0967433E-17
  -2.070000        1.0967431E-17
  -1.880000        1.0967430E-17
  -1.690000        1.0967433E-17
  -1.500000        1.0967439E-17
  -1.310000        1.0967444E-17
  -1.120000        1.0967445E-17
 -0.9300000        1.0967444E-17
 -0.7400000        1.0967441E-17
 -0.5500000        1.0967436E-17
 -0.3600000        1.0967433E-17
 -0.1700000        1.0967433E-17
  2.0000000E-02    1.0967436E-17
  0.2100000        1.0967441E-17
  0.4000000        1.0967443E-17
  0.5900000        1.0967445E-17
  0.7800000        1.0967444E-17
  0.9700000        1.0967441E-17
   1.160000        1.0967439E-17
   1.350000        1.0967437E-17
   1.540000        1.0967437E-17
   1.730000        1.0967438E-17
   1.920000        1.0967440E-17
   2.110000        1.0967442E-17
   2.300000        1.0967444E-17
   2.490000        1.0967444E-17
   2.680000        1.0967441E-17
   2.870000        1.0967436E-17
   3.060000        1.0967431E-17
   3.250000        1.0967428E-17
   3.440000        1.0967429E-17
   3.630000        1.0967431E-17
   3.820000        1.0967436E-17
   4.010000        1.0967439E-17
   4.200000        1.0967440E-17
   4.390000        1.0967439E-17
   4.580000        1.0967437E-17
   4.770000        1.0967437E-17
   4.960000        1.0967438E-17
   5.150000        1.0967442E-17
   5.340000        1.0967446E-17
   5.530000        1.0967450E-17
   5.720000        1.0967452E-17
   5.910000        1.0967451E-17
   6.100000        1.0967449E-17
   6.290000        1.0967446E-17
   6.480000        1.0967444E-17
   6.670000        1.0967441E-17
   6.860000        1.0967440E-17
   7.050000        1.0967438E-17
   7.240000        1.0967436E-17
   7.430000        1.0967436E-17
   7.620000        1.0967436E-17
   7.810000        1.0967436E-17
   8.000000        1.0967434E-17
   8.190000        1.0967431E-17
   8.380000        1.0967428E-17
   8.570000        1.0967426E-17
   8.760000        1.0967427E-17
   8.950000        1.0967431E-17
   9.140000        1.0967437E-17
   9.330000        1.0967442E-17
   9.520000        1.0967445E-17
   9.710000        1.0967445E-17
   9.900000        1.0967445E-17
   10.09000        1.0967443E-17
   10.28000        1.0967442E-17
   10.47000        1.0967442E-17
   10.66000        1.0967445E-17
   10.85000        1.0967448E-17
   11.04000        1.0967451E-17
   11.23000        1.0967453E-17
   11.42000        1.0967453E-17
   11.61000        1.0967450E-17
   11.80000        1.0967445E-17
   11.99000        1.0967439E-17
   12.18000        1.0967435E-17
   12.37000        1.0967432E-17
   12.56000        1.0967433E-17
   12.75000        1.0967436E-17
   12.94000        1.0967438E-17
   13.13000        1.0967437E-17
   13.32000        1.0967433E-17
   13.51000        1.0967427E-17
   13.70000        1.0967423E-17
   13.89000        1.0967421E-17
   14.08000        1.0967427E-17
   14.27000        1.0967437E-17
   14.46000        1.0967447E-17
   14.65000        1.0967454E-17
   14.84000        1.0967455E-17
   15.03000        1.0967451E-17
   15.22000        1.0967443E-17
   15.41000        1.0967435E-17
   15.60000        1.0967431E-17
   15.79000        1.0967431E-17
   15.98000        1.0967435E-17
   16.17000        1.0967439E-17
   16.36000        1.0967443E-17
   16.55000        1.0967445E-17
   16.74000        1.0967443E-17
   16.93000        1.0967440E-17
   17.12000        1.0967436E-17
   17.31000        1.0967434E-17
   17.50000        1.0967434E-17
   17.69000        1.0967436E-17
   17.88000        1.0967438E-17
   18.07000        1.0967438E-17
   18.26000        1.0967435E-17
   18.45000        1.0967432E-17
   18.64000        1.0967436E-17
   18.83000        1.0967450E-17
   19.02000        1.0967475E-17
   19.21000        1.0967504E-17
   19.40000        1.0967529E-17
   19.59000        1.0967540E-17
   19.78000        1.0967529E-17
   19.97000        1.0967494E-17
   20.16000        1.0967441E-17
   20.35000        1.0967374E-17
   20.54000        1.0967297E-17
   20.73000        1.0967213E-17
   20.92000        1.0967124E-17
   21.11000        1.0967035E-17
   21.30000        1.0966963E-17
   21.49000        1.0966937E-17
   21.68000        1.0966990E-17
   21.87000        1.0967153E-17
   22.06000        1.0967441E-17
   22.25000        1.0967841E-17
   22.44000        1.0968304E-17
   22.63000        1.0968758E-17
   22.82000        1.0969127E-17
   23.01000        1.0969346E-17
   23.20000        1.0969376E-17
   23.39000        1.0969208E-17
   23.58000        1.0968845E-17
   23.77000        1.0968288E-17
   23.96000        1.0967522E-17
   24.15000        1.0966523E-17
   24.34000        1.0965290E-17
   24.53000        1.0963870E-17
   24.72000        1.0962398E-17
   24.91000        1.0961088E-17
   25.10000        1.0960199E-17
   25.29000        1.0959979E-17
   25.48000        1.0960601E-17
   25.67000        1.0962126E-17
   25.86000        1.0964511E-17
   26.05000        1.0967646E-17
   26.24000        1.0971394E-17
   26.43000        1.0975603E-17
   26.62000        1.0980073E-17
   26.81000        1.0984490E-17
   27.00000        1.0988359E-17
   27.19000        1.0991015E-17
   27.38000        1.0991719E-17
   27.57000        1.0989836E-17
   27.76000        1.0985035E-17
   27.95000        1.0977424E-17
   28.14000        1.0967538E-17
   28.33000        1.0956207E-17
   28.52000        1.0944344E-17
   28.71000        1.0932774E-17
   28.90000        1.0922200E-17
   29.09000        1.0913320E-17
   29.28000        1.0907003E-17
   29.47000        1.0904408E-17
   29.66000        1.0906863E-17
   29.85000        1.0915528E-17
   30.04000        1.0930926E-17
   30.23000        1.0952564E-17
   30.42000        1.0978879E-17
   30.61000        1.1007570E-17
   30.80000        1.1036209E-17
   30.99000        1.1062815E-17
   31.18000        1.1086097E-17
   31.37000        1.1105163E-17
   31.56000        1.1118866E-17
   31.75000        1.1125139E-17
   31.94000        1.1120826E-17
   32.13000        1.1102283E-17
   32.32000        1.1066663E-17
   32.51000        1.1013379E-17
   32.70000        1.0945052E-17
   32.89000        1.0867405E-17
   33.08000        1.0788053E-17
   33.27000        1.0714713E-17
   33.46000        1.0653674E-17
   33.65000        1.0609289E-17
   33.84000        1.0584663E-17
   34.03000        1.0582993E-17
   34.22000        1.0608513E-17
   34.41000        1.0666070E-17
   34.60000        1.0759080E-17
   34.79000        1.0886584E-17
   34.98000        1.1040945E-17
   35.17000        1.1207689E-17
   35.36000        1.1368171E-17
   35.55000        1.1504308E-17
   35.74000        1.1603415E-17
   35.93000        1.1660803E-17
   36.12000        1.1678755E-17
   36.31000        1.1662270E-17
   36.50000        1.1613801E-17
   36.69000        1.1530024E-17
   36.88000        1.1402887E-17
   37.07000        1.1224991E-17
   37.26000        1.0996902E-17
   37.45000        1.0732412E-17
   37.64000        1.0458416E-17
   37.83000        1.0208459E-17
   38.02000        1.0012378E-17
   38.21000        9.8868217E-18
   38.40000        9.8314618E-18
   38.59000        9.8330591E-18
   38.78000        9.8754587E-18
   38.97000        9.9501407E-18
   39.16000        1.0061251E-17
   39.35000        1.0221674E-17
   39.54000        1.0441689E-17
   39.73000        1.0716404E-17
   39.92000        1.1019824E-17
   40.11000        1.1310699E-17
   40.30000        1.1549215E-17
   40.49000        1.1717100E-17
   40.68000        1.1830499E-17
   40.87000        1.1937155E-17
   41.06000        1.2096726E-17
   41.25000        1.2351851E-17
   41.44000        1.2703463E-17
   41.63000        1.3103120E-17
   41.82000        1.3467571E-17
   42.01000        1.3709675E-17
   42.20000        1.3770837E-17
   42.39000        1.3638380E-17
   42.58000        1.3338296E-17
   42.77000        1.2906654E-17
   42.96000        1.2355124E-17
   43.15000        1.1650843E-17
   43.34000        1.0724962E-17
   43.53000        9.5097936E-18
   43.72000        7.9886928E-18
   43.91000        6.2339313E-18
   44.10000        4.4114229E-18
   44.29000        2.7462795E-18
   44.48000        1.4626574E-18
   44.67000        7.2511914E-19
   44.86000        6.0895822E-19
   45.05000        1.1125499E-18
   45.24000        2.2025818E-18
   45.43000        3.8645560E-18
   45.62000        6.1265744E-18
   45.81000        9.0376554E-18
   46.00000        1.2606797E-17
   46.19000        1.6732908E-17
   46.38000        2.1165360E-17
   46.57000        2.5523599E-17
   46.76000        2.9376353E-17
   46.95000        3.2349899E-17
   47.14000        3.4217150E-17
   47.33000        3.4925398E-17
   47.52000        3.4549134E-17
   47.71000        3.3192002E-17
   47.90000        3.0889462E-17
   48.09000        2.7565925E-17
   48.28000        2.3074441E-17
   48.47000        1.7305019E-17
   48.66000        1.0310424E-17
   48.85000        2.3856267E-18
   49.04000       -5.9436306E-18
   49.23000       -1.4024520E-17
   49.42000       -2.1229243E-17
   49.61000       -2.7087521E-17
   49.80000       -3.1341592E-17
   49.99000       -3.3905716E-17
   50.18000       -3.4762090E-17
   50.37000       -3.3858210E-17
   50.56000       -3.1069781E-17
   50.75000       -2.6257006E-17
   50.94000       -1.9389261E-17
   51.13000       -1.0671186E-17
   51.32000       -5.9524682E-19
   51.51000        1.0122220E-17
   51.70000        2.0707982E-17
   51.89000        3.0535551E-17
   52.08000        3.9277950E-17
   52.27000        4.6943850E-17
   52.46000        5.3786079E-17
   52.65000        6.0130876E-17
   52.84000        6.6210183E-17
   53.03000        7.2070222E-17
   53.22000        7.7582871E-17
   53.41000        8.2527922E-17
   53.60000        8.6675955E-17
   53.79000        8.9804637E-17
   53.98000        9.1625380E-17
   54.17000        9.1657627E-17
   54.36000        8.9132073E-17
   54.55000        8.3005788E-17
   54.74000        7.2126966E-17
   54.93000        5.5517484E-17
   55.12000        3.2681125E-17
   55.31000        3.8265780E-18
   55.50000       -3.0073471E-17
   55.69000       -6.7397829E-17
   55.88000       -1.0610786E-16
   56.07000       -1.4399804E-16
   56.26000       -1.7888203E-16
   56.45000       -2.0868150E-16
   56.64000       -2.3144675E-16
   56.83000       -2.4537512E-16
   57.02000       -2.4888705E-16
   57.21000       -2.4077555E-16
   57.40000       -2.2038974E-16
   57.59000       -1.8777994E-16
   57.78000       -1.4373974E-16
   57.97000       -8.9726081E-17
   58.16000       -2.7695521E-17
   58.35000        4.0070174E-17
   58.54000        1.1108326E-16
   58.73000        1.8269388E-16
   58.92000        2.5209601E-16
   59.11000        3.1636824E-16
   59.30000        3.7261093E-16
   59.49000        4.1818850E-16
   59.68000        4.5101762E-16
   59.87000        4.6979703E-16
   60.06000        4.7408191E-16
   60.25000        4.6416114E-16
   60.44000        4.4077662E-16
   60.63000        4.0478775E-16
   60.82000        3.5689728E-16
   61.01000        2.9751818E-16
   61.20000        2.2679050E-16
   61.39000        1.4469983E-16
   61.58000        5.1230372E-17
   61.77000       -5.3483113E-17
   61.96000       -1.6898776E-16
   62.15000       -2.9427605E-16
   62.34000       -4.2744062E-16
   62.53000       -5.6524621E-16
   62.72000       -7.0273183E-16
   62.91000       -8.3301550E-16
   63.10000       -9.4746141E-16
   63.29000       -1.0362821E-15
   63.48000       -1.0895128E-15
   63.67000       -1.0981760E-15
   63.86000       -1.0554021E-15
   64.05000       -9.5730584E-16
   64.24000       -8.0352198E-16
   64.43000       -5.9740958E-16
   64.62000       -3.4599178E-16
   64.81000       -5.9687533E-17
   65.00000        2.4817547E-16
   65.19000        5.6213109E-16
   65.38000        8.6568821E-16
   65.57000        1.1427510E-15
   65.76000        1.3791663E-15
   65.95000        1.5640915E-15
   66.14000        1.6908550E-15
   66.33000        1.7570876E-15
   66.52000        1.7641265E-15
   66.71000        1.7159252E-15
   66.90000        1.6178462E-15
   67.09000        1.4757085E-15
   67.28000        1.2952900E-15
   67.47000        1.0822519E-15
   67.66000        8.4225722E-16
   67.85000        5.8100430E-16
   68.04000        3.0400102E-16
   68.23000        1.6118991E-17
   68.42000       -2.7884258E-16
   68.61000       -5.7828030E-16
   68.80000       -8.8039694E-16
   68.99000       -1.1833171E-15
   69.18000       -1.4839689E-15
   69.37000       -1.7771179E-15
   69.56000       -2.0548964E-15
   69.75000       -2.3069728E-15
   69.94000       -2.5212590E-15
   70.13000       -2.6848757E-15
   70.32000       -2.7850765E-15
   70.51000       -2.8099706E-15
   70.70000       -2.7490874E-15
   70.89000       -2.5939800E-15
   71.08000       -2.3390736E-15
   71.27000       -1.9828097E-15
   71.46000       -1.5289092E-15
   71.65000       -9.8738842E-16
   71.84000       -3.7491592E-16
   72.03000        2.8574934E-16
   72.22000        9.6724693E-16
   72.41000        1.6397655E-15
   72.60000        2.2734417E-15
   72.79000        2.8406103E-15
   72.98000        3.3176498E-15
   73.17000        3.6863700E-15
   73.36000        3.9350004E-15
   73.55000        4.0588366E-15
   73.74000        4.0605231E-15
   73.93000        3.9498044E-15
   74.12000        3.7425719E-15
   74.31000        3.4590994E-15
   74.50000        3.1215917E-15
   74.69000        2.7513807E-15
   74.88000        2.3662564E-15
   75.07000        1.9784098E-15
   75.26000        1.5933127E-15
   75.45000        1.2096255E-15
   75.64000        8.2003536E-16
   75.83000        4.1281358E-16
   76.02000       -2.6104861E-17
   76.21000       -5.1068326E-16
   76.40000       -1.0521279E-15
   76.59000       -1.6562261E-15
   76.78000       -2.3210011E-15
   76.97000       -3.0350933E-15
   77.16000       -3.7772566E-15
   77.35000       -4.5172021E-15
   77.54000       -5.2177318E-15
   77.73000       -5.8378523E-15
   77.92000       -6.3363693E-15
   78.11000       -6.6754756E-15
   78.30000       -6.8239625E-15
   78.49000       -6.7598722E-15
   78.68000       -6.4725193E-15
   78.87000       -5.9638129E-15
   79.06000       -5.2487053E-15
   79.25000       -4.3544956E-15
   79.44000       -3.3187418E-15
   79.63000       -2.1857437E-15
   79.82000       -1.0019321E-15
   80.01000        1.8913641E-16
   80.20000        1.3512454E-15
   80.39000        2.4585896E-15
   80.58000        3.4969421E-15
   80.77000        4.4629336E-15
   80.96000        5.3618791E-15
   81.15000        6.2047946E-15
   81.34000        7.0051293E-15
   81.53000        7.7754330E-15
   81.72000        8.5239187E-15
   81.91000        9.2508271E-15
   82.10000        9.9447436E-15
   82.29000        1.0579442E-14
   82.48000        1.1112160E-14
   82.67000        1.1484245E-14
   82.86000        1.1624738E-14
   83.05000        1.1456747E-14
   83.24000        1.0905743E-14
   83.43000        9.9083958E-15
   83.62000        8.4205053E-15
   83.81000        6.4229958E-15
   84.00000        3.9255056E-15
   84.19000        9.6775007E-16
   84.38000       -2.3809285E-15
   84.57000       -6.0234766E-15
   84.76000       -9.8385037E-15
   84.95000       -1.3685398E-14
   85.14000       -1.7411469E-14
   85.33000       -2.0861010E-14
   85.52000       -2.3885485E-14
   85.71000       -2.6353433E-14
   85.90000       -2.8158489E-14
   86.09000       -2.9224178E-14
   86.28000       -2.9505041E-14
   86.47000       -2.8984536E-14
   86.66000       -2.7670867E-14
   86.85000       -2.5592082E-14
   87.04000       -2.2791432E-14
   87.23000       -1.9323422E-14
   87.42000       -1.5250483E-14
   87.61000       -1.0640089E-14
   87.80000       -5.5623349E-15
   87.99000       -8.8399085E-17
   88.18000        5.7095149E-15
   88.37000        1.1756272E-14
   88.56000        1.7970041E-14
   88.75000        2.4257531E-14
   88.94000        3.0509649E-14
   89.13000        3.6599199E-14
   89.32000        4.2381687E-14
   89.51000        4.7699478E-14
   89.70000        5.2388571E-14
   89.89000        5.6286620E-14
   90.08000        5.9240868E-14
   90.27000        6.1115196E-14
   90.46000        6.1796251E-14
   90.65000        6.1198998E-14
   90.84000        5.9272201E-14
   91.03000        5.6003599E-14
   91.22000        5.1423967E-14
   91.41000        4.5608794E-14
   91.60000        3.8676676E-14
   91.79000        3.0784111E-14
   91.98000        2.2117487E-14
   92.17000        1.2883609E-14
   92.36000        3.3002390E-15
   92.55000       -6.4124447E-15
   92.74000       -1.6039341E-14
   92.93000       -2.5377273E-14
   93.12000       -3.4241656E-14
   93.31000       -4.2472953E-14
   93.50000       -4.9942177E-14
   93.69000       -5.6554188E-14
   93.88000       -6.2247421E-14
   94.07000       -6.6989647E-14
   94.26000       -7.0770490E-14
   94.45000       -7.3592493E-14
   94.64000       -7.5463195E-14
   94.83000       -7.6390256E-14
   95.02000       -7.6380430E-14
   95.21000       -7.5441864E-14
   95.40000       -7.3588020E-14
   95.59000       -7.0841641E-14
   95.78000       -6.7237530E-14
   95.97000       -6.2824434E-14
   96.16000       -5.7666471E-14
   96.35000       -5.1845189E-14
   96.54000       -4.5461817E-14
   96.73000       -3.8638926E-14
   96.92000       -3.1519566E-14
   97.11000       -2.4262578E-14
   97.30000       -1.7033655E-14
   97.49000       -9.9931880E-15
   97.68000       -3.2830360E-15
   97.87000        2.9853829E-15
   98.06000        8.7396724E-15
   98.25000        1.3950843E-14
   98.44000        1.8633546E-14
   98.63000        2.2843018E-14
   98.82000        2.6669320E-14
   99.01000        3.0229342E-14
   99.20000        3.3656444E-14
   99.39000        3.7087710E-14
   99.58000        4.0649338E-14
   99.77000        4.4441732E-14
   99.96000        4.8526761E-14
   100.1500        5.2919468E-14
   100.3400        5.7585799E-14
   100.5300        6.2445891E-14
   100.7200        6.7381024E-14
   100.9100        7.2241549E-14
   101.1000        7.6853630E-14
   101.2900        8.1024021E-14
   101.4800        8.4544025E-14
   101.6700        8.7194093E-14
   101.8600        8.8750425E-14
   102.0500        8.8993361E-14
   102.2400        8.7716055E-14
   102.4300        8.4731423E-14
   102.6200        7.9875756E-14
   102.8100        7.3009029E-14
   103.0000        6.4013234E-14
   103.1900        5.2790902E-14
   103.3800        3.9265388E-14
   103.5700        2.3383461E-14
   103.7600        5.1186955E-15
   103.9500       -1.5526697E-14
   104.1400       -3.8523384E-14
   104.3300       -6.3820721E-14
   104.5200       -9.1355166E-14
   104.7100       -1.2105815E-13
   104.9000       -1.5286021E-13
   105.0900       -1.8668995E-13
   105.2800       -2.2246898E-13
   105.4700       -2.6010671E-13
   105.6600       -2.9949993E-13
   105.8500       -3.4054048E-13
   106.0400       -3.8313181E-13
   106.2300       -4.2721119E-13
   106.4200       -4.7277384E-13
   106.6100       -5.1989440E-13
   106.8000       -5.6874460E-13
   106.9900       -6.1960625E-13
   107.1800       -6.7288335E-13
   107.3700       -7.2911382E-13
   107.5600       -7.8897950E-13
   107.7500       -8.5331330E-13
   107.9400       -9.2309786E-13
   108.1300       -9.9945345E-13
   108.3200       -1.0836128E-12
   108.5100       -1.1768868E-12
   108.7000       -1.2806238E-12
   108.8900       -1.3961700E-12
   109.0800       -1.5248356E-12
   109.2700       -1.6678694E-12
   109.4600       -1.8264409E-12
   109.6500       -2.0016304E-12
   109.8400       -2.1944200E-12
   110.0300       -2.4056911E-12
   110.2200       -2.6362248E-12
   110.4100       -2.8867134E-12
   110.6000       -3.1577750E-12
   110.7900       -3.4499779E-12
   110.9800       -3.7638621E-12
   111.1700       -4.0999561E-12
   111.3600       -4.4587849E-12
   111.5500       -4.8408634E-12
   111.7400       -5.2466881E-12
   111.9300       -5.6767191E-12
   112.1200       -6.1313697E-12
   112.3100       -6.6110077E-12
   112.5000       -7.1159454E-12
   112.6900       -7.6464529E-12
   112.8800       -8.2027579E-12
   113.0700       -8.7850482E-12
   113.2600       -9.3934773E-12
   113.4500       -1.0028178E-11
   113.6400       -1.0689270E-11
   113.8300       -1.1376887E-11
   114.0200       -1.2091195E-11
   114.2100       -1.2832418E-11
   114.4000       -1.3600858E-11
   114.5900       -1.4396903E-11
   114.7800       -1.5221015E-11
   114.9700       -1.6073731E-11
   115.1600       -1.6955647E-11
   115.3500       -1.7867402E-11
   115.5400       -1.8809681E-11
   115.7300       -1.9783199E-11
   115.9200       -2.0788685E-11
   116.1100       -2.1826870E-11
   116.3000       -2.2898457E-11
   116.4900       -2.4004085E-11
   116.6800       -2.5144324E-11
   116.8700       -2.6319657E-11
   117.0600       -2.7530502E-11
   117.2500       -2.8777220E-11
   117.4400       -3.0060121E-11
   117.6300       -3.1379489E-11
   117.8200       -3.2735568E-11
   118.0100       -3.4128551E-11
   118.2000       -3.5558567E-11
   118.3900       -3.7025674E-11
   118.5800       -3.8529853E-11
   118.7700       -4.0071023E-11
   118.9600       -4.1649028E-11
   119.1500       -4.3263650E-11
   119.3400       -4.4914593E-11
   119.5300       -4.6601473E-11
   119.7200       -4.8323803E-11
   119.9100       -5.0080971E-11
   120.1000       -5.1872284E-11
   120.2900       -5.3696950E-11
   120.4800       -5.5554127E-11
   120.6700       -5.7442932E-11
   120.8600       -5.9362466E-11
   121.0500       -6.1311817E-11
   121.2400       -6.3290026E-11
   121.4300       -6.5296130E-11
   121.6200       -6.7329121E-11
   121.8100       -6.9387981E-11
   122.0000       -7.1471669E-11
   122.1900       -7.3579171E-11
   122.3800       -7.5709453E-11
   122.5700       -7.7861433E-11
   122.7600       -8.0034035E-11
   122.9500       -8.2226087E-11
   123.1400       -8.4436312E-11
   123.3300       -8.6663322E-11
   123.5200       -8.8905674E-11
   123.7100       -9.1161842E-11
   123.9000       -9.3430243E-11
   124.0900       -9.5709218E-11
   124.2800       -9.7997055E-11
   124.4700       -1.0029196E-10
   124.6600       -1.0259205E-10
   124.8500       -1.0489531E-10
   125.0400       -1.0719971E-10
   125.2300       -1.0950316E-10
   125.4200       -1.1180352E-10
   125.6100       -1.1409867E-10
   125.8000       -1.1638652E-10
   125.9900       -1.1866491E-10
   126.1800       -1.2093176E-10
   126.3700       -1.2318491E-10
   126.5600       -1.2542223E-10
   126.7500       -1.2764158E-10
   126.9400       -1.2984086E-10
   127.1300       -1.3201795E-10
   127.3200       -1.3417074E-10
   127.5100       -1.3629711E-10
   127.7000       -1.3839493E-10
   127.8900       -1.4046203E-10
   128.0800       -1.4249622E-10
   128.2700       -1.4449536E-10
   128.4600       -1.4645730E-10
   128.6500       -1.4838000E-10
   128.8400       -1.5026141E-10
   129.0300       -1.5209953E-10
   129.2200       -1.5389237E-10
   129.4100       -1.5563786E-10
   129.6000       -1.5733391E-10
   129.7900       -1.5897829E-10
   129.9800       -1.6056863E-10
   130.1700       -1.6210243E-10
   130.3600       -1.6357704E-10
   130.5500       -1.6498966E-10
   130.7400       -1.6633722E-10
   130.9300       -1.6761650E-10
   131.1200       -1.6882405E-10
   131.3100       -1.6995634E-10
   131.5000       -1.7100976E-10
   131.6900       -1.7198068E-10
   131.8800       -1.7286554E-10
   132.0700       -1.7366096E-10
   132.2600       -1.7436369E-10
   132.4500       -1.7497077E-10
   132.6400       -1.7547942E-10
   132.8300       -1.7588724E-10
   133.0200       -1.7619213E-10
   133.2100       -1.7639236E-10
   133.4000       -1.7648653E-10
   133.5900       -1.7647345E-10
   133.7800       -1.7635216E-10
   133.9700       -1.7612177E-10
   134.1600       -1.7578140E-10
   134.3500       -1.7533021E-10
   134.5400       -1.7476734E-10
   134.7300       -1.7409189E-10
   134.9200       -1.7330298E-10
   135.1100       -1.7239973E-10
   135.3000       -1.7138121E-10
   135.4900       -1.7024647E-10
   135.6800       -1.6899457E-10
   135.8700       -1.6762459E-10
   136.0600       -1.6613570E-10
   136.2500       -1.6452709E-10
   136.4400       -1.6279816E-10
   136.6300       -1.6094841E-10
   136.8200       -1.5897739E-10
   137.0100       -1.5688471E-10
   137.2000       -1.5466997E-10
   137.3900       -1.5233270E-10
   137.5800       -1.4987232E-10
   137.7700       -1.4728822E-10
   137.9600       -1.4457968E-10
   138.1500       -1.4174584E-10
   138.3400       -1.3878572E-10
   138.5300       -1.3569820E-10
   138.7200       -1.3248194E-10
   138.9100       -1.2913545E-10
   139.1000       -1.2565712E-10
   139.2900       -1.2204532E-10
   139.4800       -1.1829848E-10
   139.6700       -1.1441514E-10
   139.8600       -1.1039404E-10
   140.0500       -1.0623413E-10
   140.2400       -1.0193457E-10
   140.4300       -9.7494735E-11
   140.6200       -9.2914218E-11
   140.8100       -8.8192946E-11
   141.0000       -8.3331161E-11
   141.1900       -7.8329516E-11
   141.3800       -7.3189024E-11
   141.5700       -6.7911073E-11
   141.7600       -6.2497327E-11
   141.9500       -5.6949633E-11
   142.1400       -5.1269995E-11
   142.3300       -4.5460490E-11
   142.5200       -3.9523211E-11