  -30.00000        8.3808932E-19
  -29.81000        8.3808932E-19
  -29.62000        8.3808932E-19
  -29.43000        8.3808942E-19
  -29.24000        8.3808942E-19
  -29.05000        8.3808947E-19
  -28.86000        8.3808947E-19
  -28.67000        8.3808947E-19
  -28.48000        8.3808942E-19
  -28.29000        8.3808937E-19
  -28.10000        8.3808932E-19
  -27.91000        8.3808921E-19
  -27.72000        8.3808921E-19
  -27.53000        8.3808921E-19
  -27.34000        8.3808926E-19
  -27.15000        8.3808947E-19
  -26.96000        8.3808869E-19
  -26.77000        8.3808859E-19
  -26.58000        8.3808838E-19
  -26.39000        8.3808854E-19
  -26.20000        8.3808978E-19
  -26.01000        8.3809061E-19
  -25.82000        8.3809056E-19
  -25.63000        8.3808968E-19
  -25.44000        8.3808854E-19
  -25.25000        8.3808797E-19
  -25.06000        8.3808869E-19
  -24.87000        8.3809035E-19
  -24.68000        8.3809200E-19
  -24.49000        8.3809314E-19
  -24.30000        8.3809242E-19
  -24.11000        8.3809045E-19
  -23.92000        8.3808818E-19
  -23.73000        8.3808761E-19
  -23.54000        8.3808880E-19
  -23.35000        8.3809025E-19
  -23.16000        8.3809071E-19
  -22.97000        8.3809009E-19
  -22.78000        8.3808838E-19
  -22.59000        8.3808735E-19
  -22.40000        8.3808766E-19
  -22.21000        8.3808921E-19
  -22.02000        8.3809097E-19
  -21.83000        8.3809133E-19
  -21.64000        8.3809061E-19
  -21.45000        8.3808916E-19
  -21.26000        8.3808740E-19
  -21.07000        8.3808678E-19
  -20.88000        8.3808818E-19
  -20.69000        8.3808880E-19
  -20.50000        8.3808932E-19
  -20.31000        8.3808833E-19
  -20.12000        8.3808714E-19
  -19.93000        8.3808642E-19
  -19.74000        8.3808792E-19
  -19.55000        8.3809092E-19
  -19.36000        8.3809355E-19
  -19.17000        8.3809386E-19
  -18.98000        8.3809247E-19
  -18.79000        8.3808994E-19
  -18.60000        8.3808797E-19
  -18.41000        8.3808792E-19
  -18.22000        8.3808859E-19
  -18.03000        8.3808963E-19
  -17.84000        8.3808957E-19
  -17.65000        8.3808787E-19
  -17.46000        8.3808637E-19
  -17.27000        8.3808533E-19
  -17.08000        8.3808575E-19
  -16.89000        8.3808699E-19
  -16.70000        8.3808849E-19
  -16.51000        8.3809004E-19
  -16.32000        8.3809056E-19
  -16.13000        8.3809159E-19
  -15.94000        8.3809185E-19
  -15.75000        8.3809185E-19
  -15.56000        8.3809237E-19
  -15.37000        8.3809185E-19
  -15.18000        8.3809112E-19
  -14.99000        8.3808880E-19
  -14.80000        8.3808637E-19
  -14.61000        8.3808497E-19
  -14.42000        8.3808544E-19
  -14.23000        8.3808694E-19
  -14.04000        8.3808937E-19
  -13.85000        8.3809154E-19
  -13.66000        8.3809190E-19
  -13.47000        8.3809118E-19
  -13.28000        8.3809040E-19
  -13.09000        8.3808911E-19
  -12.90000        8.3808875E-19
  -12.71000        8.3808916E-19
  -12.52000        8.3808921E-19
  -12.33000        8.3808869E-19
  -12.14000        8.3808751E-19
  -11.95000        8.3808714E-19
  -11.76000        8.3808880E-19
  -11.57000        8.3809185E-19
  -11.38000        8.3809547E-19
  -11.19000        8.3809728E-19
  -11.00000        8.3809671E-19
  -10.81000        8.3809485E-19
  -10.62000        8.3809314E-19
  -10.43000        8.3809206E-19
  -10.24000        8.3809175E-19
  -10.05000        8.3809112E-19
  -9.860000        8.3808947E-19
  -9.670000        8.3808647E-19
  -9.480000        8.3808415E-19
  -9.290000        8.3808327E-19
  -9.100000        8.3808528E-19
  -8.910000        8.3808947E-19
  -8.720000        8.3809350E-19
  -8.530000        8.3809552E-19
  -8.340000        8.3809469E-19
  -8.150000        8.3809324E-19
  -7.960000        8.3809309E-19
  -7.770000        8.3809386E-19
  -7.580000        8.3809469E-19
  -7.390000        8.3809381E-19
  -7.200000        8.3809050E-19
  -7.010000        8.3808502E-19
  -6.820000        8.3808110E-19
  -6.630000        8.3807939E-19
  -6.440000        8.3808047E-19
  -6.250000        8.3808368E-19
  -6.060000        8.3808575E-19
  -5.870000        8.3808513E-19
  -5.680000        8.3808321E-19
  -5.490000        8.3808311E-19
  -5.300000        8.3808616E-19
  -5.110000        8.3809185E-19
  -4.920000        8.3809702E-19
  -4.730000        8.3809790E-19
  -4.540000        8.3809361E-19
  -4.350000        8.3808714E-19
  -4.160000        8.3808115E-19
  -3.970000        8.3807985E-19
  -3.780000        8.3808342E-19
  -3.590000        8.3808823E-19
  -3.400000        8.3809112E-19
  -3.210000        8.3808952E-19
  -3.020000        8.3808616E-19
  -2.830000        8.3808482E-19
  -2.640000        8.3808678E-19
  -2.450000        8.3809112E-19
  -2.260000        8.3809542E-19
  -2.070000        8.3809671E-19
  -1.880000        8.3809412E-19
  -1.690000        8.3809019E-19
  -1.500000        8.3808766E-19
  -1.310000        8.3808895E-19
  -1.120000        8.3809175E-19
 -0.9300000        8.3809443E-19
 -0.7400000        8.3809423E-19
 -0.5500000        8.3809107E-19
 -0.3600000        8.3808787E-19
 -0.1700000        8.3808714E-19
  2.0000000E-02    8.3808947E-19
  0.2100000        8.3809304E-19
  0.4000000        8.3809593E-19
  0.5900000        8.3809469E-19
  0.7800000        8.3809066E-19
  0.9700000        8.3808751E-19
   1.160000        8.3808756E-19
   1.350000        8.3809107E-19
   1.540000        8.3809443E-19
   1.730000        8.3809609E-19
   1.920000        8.3809531E-19
   2.110000        8.3809128E-19
   2.300000        8.3808818E-19
   2.490000        8.3808694E-19
   2.680000        8.3808833E-19
   2.870000        8.3809066E-19
   3.060000        8.3809185E-19
   3.250000        8.3809185E-19
   3.440000        8.3809133E-19
   3.630000        8.3809081E-19
   3.820000        8.3808968E-19
   4.010000        8.3808813E-19
   4.200000        8.3808533E-19
   4.390000        8.3808228E-19
   4.580000        8.3808011E-19
   4.770000        8.3807908E-19
   4.960000        8.3808011E-19
   5.150000        8.3808177E-19
   5.340000        8.3808425E-19
   5.530000        8.3808528E-19
   5.720000        8.3808575E-19
   5.910000        8.3808740E-19
   6.100000        8.3809092E-19
   6.290000        8.3809531E-19
   6.480000        8.3809852E-19
   6.670000        8.3809924E-19
   6.860000        8.3809759E-19
   7.050000        8.3809438E-19
   7.240000        8.3809159E-19
   7.430000        8.3808906E-19
   7.620000        8.3808730E-19
   7.810000        8.3808585E-19
   8.000000        8.3808471E-19
   8.190000        8.3808327E-19
   8.380000        8.3808249E-19
   8.570000        8.3808156E-19
   8.760000        8.3808239E-19
   8.950000        8.3808430E-19
   9.140000        8.3808595E-19
   9.330000        8.3808730E-19
   9.520000        8.3808854E-19
   9.710000        8.3809014E-19
   9.900000        8.3809299E-19
   10.09000        8.3809567E-19
   10.28000        8.3809712E-19
   10.47000        8.3809660E-19
   10.66000        8.3809381E-19
   10.85000        8.3808957E-19
   11.04000        8.3808621E-19
   11.23000        8.3808513E-19
   11.42000        8.3808580E-19
   11.61000        8.3808694E-19
   11.80000        8.3808776E-19
   11.99000        8.3808704E-19
   12.18000        8.3808549E-19
   12.37000        8.3808513E-19
   12.56000        8.3808735E-19
   12.75000        8.3809118E-19
   12.94000        8.3809485E-19
   13.13000        8.3809681E-19
   13.32000        8.3809598E-19
   13.51000        8.3809278E-19
   13.70000        8.3809009E-19
   13.89000        8.3808875E-19
   14.08000        8.3808797E-19
   14.27000        8.3808797E-19
   14.46000        8.3808792E-19
   14.65000        8.3808637E-19
   14.84000        8.3808466E-19
   15.03000        8.3808332E-19
   15.22000        8.3808327E-19
   15.41000        8.3808399E-19
   15.60000        8.3808508E-19
   15.79000        8.3808590E-19
   15.98000        8.3808580E-19
   16.17000        8.3808590E-19
   16.36000        8.3808668E-19
   16.55000        8.3808849E-19
   16.74000        8.3809081E-19
   16.93000        8.3809283E-19
   17.12000        8.3809402E-19
   17.31000        8.3809335E-19
   17.50000        8.3809128E-19
   17.69000        8.3808957E-19
   17.88000        8.3808823E-19
   18.07000        8.3808776E-19
   18.26000        8.3808647E-19
   18.45000        8.3808394E-19
   18.64000        8.3808177E-19
   18.83000        8.3808089E-19
   19.02000        8.3808234E-19
   19.21000        8.3808523E-19
   19.40000        8.3808890E-19
   19.59000        8.3809195E-19
   19.78000        8.3809449E-19
   19.97000        8.3809567E-19
   20.16000        8.3809557E-19
   20.35000        8.3809423E-19
   20.54000        8.3809190E-19
   20.73000        8.3809040E-19
   20.92000        8.3809040E-19
   21.11000        8.3809092E-19
   21.30000        8.3809175E-19
   21.49000        8.3809169E-19
   21.68000        8.3809144E-19
   21.87000        8.3809035E-19
   22.06000        8.3809019E-19
   22.25000        8.3809221E-19
   22.44000        8.3809542E-19
   22.63000        8.3809759E-19
   22.82000        8.3809836E-19
   23.01000        8.3809645E-19
   23.20000        8.3809200E-19
   23.39000        8.3808807E-19
   23.58000        8.3808678E-19
   23.77000        8.3808818E-19
   23.96000        8.3809081E-19
   24.15000        8.3809242E-19
   24.34000        8.3809180E-19
   24.53000        8.3808854E-19
   24.72000        8.3808539E-19
   24.91000        8.3808384E-19
   25.10000        8.3808440E-19
   25.29000        8.3808611E-19
   25.48000        8.3808776E-19
   25.67000        8.3808720E-19
   25.86000        8.3808575E-19
   26.05000        8.3808477E-19
   26.24000        8.3808637E-19
   26.43000        8.3808968E-19
   26.62000        8.3809247E-19
   26.81000        8.3809381E-19
   27.00000        8.3809216E-19
   27.19000        8.3808942E-19
   27.38000        8.3808761E-19
   27.57000        8.3808844E-19
   27.76000        8.3809216E-19
   27.95000        8.3809635E-19
   28.14000        8.3809810E-19
   28.33000        8.3809697E-19
   28.52000        8.3809397E-19
   28.71000        8.3809206E-19
   28.90000        8.3809330E-19
   29.09000        8.3809526E-19
   29.28000        8.3809635E-19
   29.47000        8.3809371E-19
   29.66000        8.3808833E-19
   29.85000        8.3808270E-19
   30.04000        8.3808120E-19
   30.23000        8.3808363E-19
   30.42000        8.3808844E-19
   30.61000        8.3809237E-19
   30.80000        8.3809278E-19
   30.99000        8.3808942E-19
   31.18000        8.3808425E-19
   31.37000        8.3808218E-19
   31.56000        8.3808435E-19
   31.75000        8.3808885E-19
   31.94000        8.3809185E-19
   32.13000        8.3809071E-19
   32.32000        8.3808590E-19
   32.51000        8.3808084E-19
   32.70000        8.3807861E-19
   32.89000        8.3808104E-19
   33.08000        8.3808658E-19
   33.27000        8.3809283E-19
   33.46000        8.3809578E-19
   33.65000        8.3809614E-19
   33.84000        8.3809547E-19
   34.03000        8.3809490E-19
   34.22000        8.3809542E-19
   34.41000        8.3809578E-19
   34.60000        8.3809376E-19
   34.79000        8.3808916E-19
   34.98000        8.3808254E-19
   35.17000        8.3807753E-19
   35.36000        8.3807711E-19
   35.55000        8.3807903E-19
   35.74000        8.3808063E-19
   35.93000        8.3807970E-19
   36.12000        8.3807613E-19
   36.31000        8.3807277E-19
   36.50000        8.3807365E-19
   36.69000        8.3807965E-19
   36.88000        8.3808890E-19
   37.07000        8.3809697E-19
   37.26000        8.3809991E-19
   37.45000        8.3809640E-19
   37.64000        8.3809066E-19
   37.83000        8.3808658E-19
   38.02000        8.3808689E-19
   38.21000        8.3809081E-19
   38.40000        8.3809505E-19
   38.59000        8.3809743E-19
   38.78000        8.3809759E-19
   38.97000        8.3809624E-19
   39.16000        8.3809536E-19
   39.35000        8.3809480E-19
   39.54000        8.3809376E-19
   39.73000        8.3809097E-19
   39.92000        8.3808704E-19
   40.11000        8.3808363E-19
   40.30000        8.3808259E-19
   40.49000        8.3808420E-19
   40.68000        8.3808735E-19
   40.87000        8.3808988E-19
   41.06000        8.3808978E-19
   41.25000        8.3808637E-19
   41.44000        8.3808120E-19
   41.63000        8.3807820E-19
   41.82000        8.3808037E-19
   42.01000        8.3808647E-19
   42.20000        8.3809376E-19
   42.39000        8.3809831E-19
   42.58000        8.3809940E-19
   42.77000        8.3809795E-19
   42.96000        8.3809640E-19
   43.15000        8.3809681E-19
   43.34000        8.3809898E-19
   43.53000        8.3810048E-19
   43.72000        8.3809971E-19
   43.91000        8.3809671E-19
   44.10000        8.3809133E-19
   44.29000        8.3808761E-19
   44.48000        8.3808694E-19
   44.67000        8.3808813E-19
   44.86000        8.3808885E-19
   45.05000        8.3808751E-19
   45.24000        8.3808446E-19
   45.43000        8.3808058E-19
   45.62000        8.3807892E-19
   45.81000        8.3808027E-19
   46.00000        8.3808197E-19
   46.19000        8.3808228E-19
   46.38000        8.3808001E-19
   46.57000        8.3807577E-19
   46.76000        8.3807303E-19
   46.95000        8.3807422E-19
   47.14000        8.3807954E-19
   47.33000        8.3808611E-19
   47.52000        8.3809076E-19
   47.71000        8.3809087E-19
   47.90000        8.3808776E-19
   48.09000        8.3808373E-19
   48.28000        8.3808161E-19
   48.47000        8.3808332E-19
   48.66000        8.3808564E-19
   48.85000        8.3808652E-19
   49.04000        8.3808523E-19
   49.23000        8.3808290E-19
   49.42000        8.3808332E-19
   49.61000        8.3808818E-19
   49.80000        8.3809681E-19
   49.99000        8.3810529E-19
   50.18000        8.3810813E-19
   50.37000        8.3810431E-19
   50.56000        8.3809748E-19
   50.75000        8.3809216E-19
   50.94000        8.3809180E-19
   51.13000        8.3809666E-19
   51.32000        8.3810255E-19
   51.51000        8.3810400E-19
   51.70000        8.3810079E-19
   51.89000        8.3809469E-19
   52.08000        8.3809019E-19
   52.27000        8.3809035E-19
   52.46000        8.3809324E-19
   52.65000        8.3809573E-19
   52.84000        8.3809361E-19
   53.03000        8.3808782E-19
   53.22000        8.3808125E-19
   53.41000        8.3807836E-19
   53.60000        8.3808099E-19
   53.79000        8.3808704E-19
   53.98000        8.3809314E-19
   54.17000        8.3809573E-19
   54.36000        8.3809516E-19
   54.55000        8.3809402E-19
   54.74000        8.3809547E-19
   54.93000        8.3809831E-19
   55.12000        8.3810177E-19
   55.31000        8.3810219E-19
   55.50000        8.3809831E-19
   55.69000        8.3809128E-19
   55.88000        8.3808446E-19
   56.07000        8.3808135E-19
   56.26000        8.3808353E-19
   56.45000        8.3808901E-19
   56.64000        8.3809433E-19
   56.83000        8.3809764E-19
   57.02000        8.3809754E-19
   57.21000        8.3809469E-19
   57.40000        8.3809159E-19
   57.59000        8.3809066E-19
   57.78000        8.3809180E-19
   57.97000        8.3809418E-19
   58.16000        8.3809645E-19
   58.35000        8.3809717E-19
   58.54000        8.3809578E-19
   58.73000        8.3809273E-19
   58.92000        8.3808999E-19
   59.11000        8.3808792E-19
   59.30000        8.3808642E-19
   59.49000        8.3808523E-19
   59.68000        8.3808234E-19
   59.87000        8.3807836E-19
   60.06000        8.3807370E-19
   60.25000        8.3807034E-19
   60.44000        8.3806936E-19
   60.63000        8.3806941E-19
   60.82000        8.3806957E-19
   61.01000        8.3806900E-19
   61.20000        8.3806807E-19
   61.39000        8.3806817E-19
   61.58000        8.3807236E-19
   61.77000        8.3807877E-19
   61.96000        8.3808595E-19
   62.15000        8.3809164E-19
   62.34000        8.3809418E-19
   62.53000        8.3809319E-19
   62.72000        8.3809123E-19
   62.91000        8.3809185E-19
   63.10000        8.3809604E-19
   63.29000        8.3810276E-19
   63.48000        8.3810875E-19
   63.67000        8.3811077E-19
   63.86000        8.3810819E-19
   64.05000        8.3810426E-19
   64.24000        8.3810219E-19
   64.43000        8.3810136E-19
   64.62000        8.3810110E-19
   64.81000        8.3809966E-19
   65.00000        8.3809552E-19
   65.19000        8.3808875E-19
   65.38000        8.3808239E-19
   65.57000        8.3807965E-19
   65.76000        8.3808146E-19
   65.95000        8.3808446E-19
   66.14000        8.3808740E-19
   66.33000        8.3808859E-19
   66.52000        8.3808869E-19
   66.71000        8.3808983E-19
   66.90000        8.3809211E-19
   67.09000        8.3809459E-19
   67.28000        8.3809449E-19
   67.47000        8.3809030E-19
   67.66000        8.3808363E-19
   67.85000        8.3807877E-19
   68.04000        8.3807856E-19
   68.23000        8.3808156E-19
   68.42000        8.3808549E-19
   68.61000        8.3808735E-19
   68.80000        8.3808575E-19
   68.99000        8.3808234E-19
   69.18000        8.3808006E-19
   69.37000        8.3808063E-19
   69.56000        8.3808368E-19
   69.75000        8.3808642E-19
   69.94000        8.3808570E-19
   70.13000        8.3808327E-19
   70.32000        8.3808079E-19
   70.51000        8.3808208E-19
   70.70000        8.3808751E-19
   70.89000        8.3809567E-19
   71.08000        8.3810405E-19
   71.27000        8.3810906E-19
   71.46000        8.3811098E-19
   71.65000        8.3811134E-19
   71.84000        8.3811175E-19
   72.03000        8.3811196E-19
   72.22000        8.3811242E-19
   72.41000        8.3811015E-19
   72.60000        8.3810488E-19
   72.79000        8.3809872E-19
   72.98000        8.3809262E-19
   73.17000        8.3808911E-19
   73.36000        8.3808761E-19
   73.55000        8.3808637E-19
   73.74000        8.3808347E-19
   73.93000        8.3807877E-19
   74.12000        8.3807499E-19
   74.31000        8.3807479E-19
   74.50000        8.3807805E-19
   74.69000        8.3808384E-19
   74.88000        8.3808952E-19
   75.07000        8.3809242E-19
   75.26000        8.3809200E-19
   75.45000        8.3809045E-19
   75.64000        8.3808911E-19
   75.83000        8.3808864E-19
   76.02000        8.3808916E-19
   76.21000        8.3808942E-19
   76.40000        8.3808735E-19
   76.59000        8.3808497E-19
   76.78000        8.3808208E-19
   76.97000        8.3808135E-19
   77.16000        8.3808373E-19
   77.35000        8.3808885E-19
   77.54000        8.3809423E-19
   77.73000        8.3809723E-19
   77.92000        8.3809748E-19
   78.11000        8.3809583E-19
   78.30000        8.3809335E-19
   78.49000        8.3809211E-19
   78.68000        8.3809211E-19
   78.87000        8.3809195E-19
   79.06000        8.3809107E-19
   79.25000        8.3808932E-19
   79.44000        8.3808787E-19
   79.63000        8.3808740E-19
   79.82000        8.3808766E-19
   80.01000        8.3808833E-19
   80.20000        8.3808828E-19
   80.39000        8.3808699E-19
   80.58000        8.3808492E-19
   80.77000        8.3808244E-19
   80.96000        8.3808192E-19
   81.15000        8.3808430E-19
   81.34000        8.3808833E-19
   81.53000        8.3809154E-19
   81.72000        8.3809273E-19
   81.91000        8.3809226E-19
   82.10000        8.3809009E-19
   82.29000        8.3808807E-19
   82.48000        8.3808735E-19
   82.67000        8.3808652E-19
   82.86000        8.3808508E-19
   83.05000        8.3808130E-19
   83.24000        8.3807644E-19
   83.43000        8.3807179E-19
   83.62000        8.3807008E-19
   83.81000        8.3807288E-19
   84.00000        8.3807918E-19
   84.19000        8.3808694E-19
   84.38000        8.3809252E-19
   84.57000        8.3809655E-19
   84.76000        8.3809790E-19
   84.95000        8.3809774E-19
   85.14000        8.3809883E-19
   85.33000        8.3810002E-19
   85.52000        8.3810095E-19
   85.71000        8.3810126E-19
   85.90000        8.3809945E-19
   86.09000        8.3809624E-19
   86.28000        8.3809144E-19
   86.47000        8.3808699E-19
   86.66000        8.3808306E-19
   86.85000        8.3807954E-19
   87.04000        8.3807675E-19
   87.23000        8.3807499E-19
   87.42000        8.3807541E-19
   87.61000        8.3807805E-19
   87.80000        8.3808223E-19
   87.99000        8.3808751E-19
   88.18000        8.3809200E-19
   88.37000        8.3809521E-19
   88.56000        8.3809723E-19
   88.75000        8.3809914E-19
   88.94000        8.3810146E-19
   89.13000        8.3810317E-19
   89.32000        8.3810395E-19
   89.51000        8.3810229E-19
   89.70000        8.3809945E-19
   89.89000        8.3809681E-19
   90.08000        8.3809629E-19
   90.27000        8.3809857E-19
   90.46000        8.3810250E-19
   90.65000        8.3810488E-19
   90.84000        8.3810395E-19
   91.03000        8.3810100E-19
   91.22000        8.3809692E-19
   91.41000        8.3809304E-19
   91.60000        8.3808968E-19
   91.79000        8.3808508E-19
   91.98000        8.3808032E-19
   92.17000        8.3807536E-19
   92.36000        8.3807365E-19
   92.55000        8.3807567E-19
   92.74000        8.3808104E-19
   92.93000        8.3808689E-19
   93.12000        8.3809045E-19
   93.31000        8.3808999E-19
   93.50000        8.3808725E-19
   93.69000        8.3808466E-19
   93.88000        8.3808466E-19
   94.07000        8.3808544E-19
   94.26000        8.3808523E-19
   94.45000        8.3808311E-19
   94.64000        8.3807903E-19
   94.83000        8.3807536E-19
   95.02000        8.3807515E-19
   95.21000        8.3807872E-19
   95.40000        8.3808347E-19
   95.59000        8.3808678E-19
   95.78000        8.3808725E-19
   95.97000        8.3808497E-19
   96.16000        8.3808301E-19
   96.35000        8.3808466E-19
   96.54000        8.3808932E-19
   96.73000        8.3809443E-19
   96.92000        8.3809779E-19
   97.11000        8.3809841E-19
   97.30000        8.3809624E-19
   97.49000        8.3809361E-19
   97.68000        8.3809304E-19
   97.87000        8.3809386E-19
   98.06000        8.3809469E-19
   98.25000        8.3809345E-19
   98.44000        8.3809144E-19
   98.63000        8.3808854E-19
   98.82000        8.3808709E-19
   99.01000        8.3808782E-19
   99.20000        8.3808994E-19
   99.39000        8.3809066E-19
   99.58000        8.3808978E-19
   99.77000        8.3808709E-19
   99.96000        8.3808471E-19
   100.1500        8.3808415E-19
   100.3400        8.3808378E-19
   100.5300        8.3808311E-19
   100.7200        8.3808151E-19
   100.9100        8.3808068E-19
   101.1000        8.3808156E-19
   101.2900        8.3808544E-19
   101.4800        8.3809144E-19
   101.6700        8.3809805E-19
   101.8600        8.3810224E-19
   102.0500        8.3810183E-19
   102.2400        8.3809728E-19
   102.4300        8.3808916E-19
   102.6200        8.3808027E-19
   102.8100        8.3807277E-19
   103.0000        8.3806874E-19
   103.1900        8.3806796E-19
   103.3800        8.3806874E-19
   103.5700        8.3806993E-19
   103.7600        8.3807112E-19
   103.9500        8.3807174E-19
   104.1400        8.3807443E-19
   104.3300        8.3808151E-19
   104.5200        8.3809314E-19
   104.7100        8.3810736E-19
   104.9000        8.3812132E-19
   105.0900        8.3813140E-19
   105.2800        8.3813517E-19
   105.4700        8.3813559E-19
   105.6600        8.3813610E-19
   105.8500        8.3813915E-19
   106.0400        8.3814587E-19
   106.2300        8.3815497E-19
   106.4200        8.3816081E-19
   106.6100        8.3815885E-19
   106.8000        8.3814706E-19
   106.9900        8.3812571E-19
   107.1800        8.3809831E-19
   107.3700        8.3807091E-19
   107.5600        8.3804677E-19
   107.7500        8.3802671E-19
   107.9400        8.3800882E-19
   108.1300        8.3799191E-19
   108.3200        8.3797439E-19
   108.5100        8.3795562E-19
   108.7000        8.3793706E-19
   108.8900        8.3792212E-19
   109.0800        8.3791380E-19
   109.2700        8.3791338E-19
   109.4600        8.3792083E-19
   109.6500        8.3793256E-19
   109.8400        8.3794513E-19
   110.0300        8.3795604E-19
   110.2200        8.3796560E-19
   110.4100        8.3797744E-19
   110.6000        8.3799812E-19
   110.7900        8.3803296E-19
   110.9800        8.3808254E-19
   111.1700        8.3814303E-19
   111.3600        8.3820657E-19
   111.5500        8.3826618E-19
   111.7400        8.3831746E-19
   111.9300        8.3836311E-19
   112.1200        8.3840840E-19
   112.3100        8.3845803E-19
   112.5000        8.3851273E-19
   112.6900        8.3856887E-19
   112.8800        8.3861597E-19
   113.0700        8.3864275E-19
   113.2600        8.3864239E-19
   113.4500        8.3861638E-19
   113.6400        8.3857027E-19
   113.8300        8.3851076E-19
   114.0200        8.3844299E-19
   114.2100        8.3836461E-19
   114.4000        8.3826824E-19
   114.5900        8.3814784E-19
   114.7800        8.3800298E-19
   114.9700        8.3784173E-19
   115.1600        8.3767562E-19
   115.3500        8.3751675E-19
   115.5400        8.3737137E-19
   115.7300        8.3723654E-19
   115.9200        8.3710523E-19
   116.1100        8.3697412E-19
   116.3000        8.3684725E-19
   116.4900        8.3673434E-19
   116.6800        8.3665354E-19
   116.8700        8.3662112E-19
   117.0600        8.3664857E-19
   117.2500        8.3673863E-19
   117.4400        8.3688846E-19
   117.6300        8.3708900E-19
   117.8200        8.3732877E-19
   118.0100        8.3759921E-19
   118.2000        8.3789426E-19
   118.3900        8.3821577E-19
   118.5800        8.3856753E-19
   118.7700        8.3894995E-19
   118.9600        8.3935475E-19
   119.1500        8.3976534E-19
   119.3400        8.4015975E-19
   119.5300        8.4051678E-19
   119.7200        8.4082506E-19
   119.9100        8.4108288E-19
   120.1000        8.4129397E-19
   120.2900        8.4145434E-19
   120.4800        8.4154802E-19
   120.6700        8.4154786E-19
   120.8600        8.4142358E-19
   121.0500        8.4115557E-19
   121.2400        8.4074462E-19
   121.4300        8.4021346E-19
   121.6200        8.3959277E-19
   121.8100        8.3890879E-19
   122.0000        8.3817431E-19
   122.1900        8.3738616E-19
   122.3800        8.3653649E-19
   122.5700        8.3562520E-19
   122.7600        8.3467265E-19
   122.9500        8.3371999E-19
   123.1400        8.3282240E-19
   123.3300        8.3203503E-19
   123.5200        8.3139960E-19
   123.7100        8.3093855E-19
   123.9000        8.3065705E-19
   124.0900        8.3055060E-19
   124.2800        8.3061626E-19
   124.4700        8.3086105E-19
   124.6600        8.3130111E-19
   124.8500        8.3195567E-19
   125.0400        8.3283543E-19
   125.2300        8.3393583E-19
   125.4200        8.3523409E-19
   125.6100        8.3669629E-19
   125.8000        8.3828949E-19
   125.9900        8.3998671E-19
   126.1800        8.4176830E-19
   126.3700        8.4361199E-19
   126.5600        8.4547754E-19
   126.7500        8.4729935E-19
   126.9400        8.4898747E-19
   127.1300        8.5044362E-19
   127.3200        8.5158570E-19
   127.5100        8.5236299E-19
   127.7000        8.5276986E-19
   127.8900        8.5283515E-19
   128.0800        8.5259791E-19
   128.2700        8.5208454E-19
   128.4600        8.5129339E-19
   128.6500        8.5019412E-19
   128.8400        8.4874506E-19
   129.0300        8.4691823E-19
   129.2200        8.4471798E-19
   129.4100        8.4218541E-19
   129.6000        8.3938670E-19
   129.7900        8.3639644E-19
   129.9800        8.3327962E-19
   130.1700        8.3009177E-19
   130.3600        8.2688428E-19
   130.5500        8.2372072E-19
   130.7400        8.2068492E-19
   130.9300        8.1787933E-19
   131.1200        8.1540937E-19
   131.3100        8.1336184E-19
   131.5000        8.1178688E-19
   131.6900        8.1070286E-19
   131.8800        8.1010941E-19
   132.0700        8.1001558E-19
   132.2600        8.1045807E-19
   132.4500        8.1150595E-19
   132.6400        8.1323740E-19
   132.8300        8.1570358E-19
   133.0200        8.1889929E-19
   133.2100        8.2274951E-19
   133.4000        8.2712287E-19
   133.5900        8.3187042E-19
   133.7800        8.3687264E-19
   133.9700        8.4206687E-19
   134.1600        8.4744705E-19
   134.3500        8.5303352E-19
   134.5400        8.5882823E-19
   134.7300        8.6477551E-19
   134.9200        8.7074915E-19
   135.1100        8.7656319E-19
   135.3000        8.8200242E-19
   135.4900        8.8685549E-19
   135.6800        8.9093597E-19
   135.8700        8.9408432E-19
   136.0600        8.9615993E-19
   136.2500        8.9703912E-19
   136.4400        8.9662470E-19
   136.6300        8.9486446E-19
   136.8200        8.9176977E-19
   137.0100        8.8741694E-19
   137.2000        8.8192508E-19
   137.3900        8.7541227E-19
   137.5800        8.6794945E-19
   137.7700        8.5952798E-19
   137.9600        8.5006880E-19
   138.1500        8.3947221E-19
   138.3400        8.2769233E-19
   138.5300        8.1480894E-19
   138.7200        8.0106502E-19
   138.9100        7.8685670E-19
   139.1000        7.7267530E-19
   139.2900        7.5902207E-19
   139.4800        7.4633658E-19
   139.6700        7.3495928E-19
   139.8600        7.2513460E-19
   140.0500        7.1705821E-19
   140.2400        7.1092064E-19
   140.4300        7.0693606E-19
   140.6200        7.0533918E-19
   140.8100        7.0635351E-19
   141.0000        7.1017131E-19
   141.1900        7.1693419E-19
   141.3800        7.2674119E-19
   141.5700        7.3966930E-19
   141.7600        7.5577890E-19
   141.9500        7.7508648E-19
   142.1400        7.9751331E-19
   142.3300        8.2283099E-19
   142.5200        8.5062679E-19