  -30.00000       -2.9400989E-18
  -29.81000       -2.9400989E-18
  -29.62000       -2.9400989E-18
  -29.43000       -2.9400989E-18
  -29.24000       -2.9400993E-18
  -29.05000       -2.9400995E-18
  -28.86000       -2.9400995E-18
  -28.67000       -2.9400995E-18
  -28.48000       -2.9400991E-18
  -28.29000       -2.9400989E-18
  -28.10000       -2.9400987E-18
  -27.91000       -2.9400987E-18
  -27.72000       -2.9400987E-18
  -27.53000       -2.9400991E-18
  -27.34000       -2.9400991E-18
  -27.15000       -2.9400989E-18
  -26.96000       -2.9400989E-18
  -26.77000       -2.9400993E-18
  -26.58000       -2.9400989E-18
  -26.39000       -2.9400985E-18
  -26.20000       -2.9400993E-18
  -26.01000       -2.9401004E-18
  -25.82000       -2.9401004E-18
  -25.63000       -2.9401002E-18
  -25.44000       -2.9400997E-18
  -25.25000       -2.9400989E-18
  -25.06000       -2.9400991E-18
  -24.87000       -2.9400993E-18
  -24.68000       -2.9400995E-18
  -24.49000       -2.9400995E-18
  -24.30000       -2.9400997E-18
  -24.11000       -2.9400997E-18
  -23.92000       -2.9400993E-18
  -23.73000       -2.9400995E-18
  -23.54000       -2.9400997E-18
  -23.35000       -2.9400997E-18
  -23.16000       -2.9400995E-18
  -22.97000       -2.9400993E-18
  -22.78000       -2.9400993E-18
  -22.59000       -2.9400987E-18
  -22.40000       -2.9400985E-18
  -22.21000       -2.9400983E-18
  -22.02000       -2.9400983E-18
  -21.83000       -2.9400979E-18
  -21.64000       -2.9400981E-18
  -21.45000       -2.9400987E-18
  -21.26000       -2.9400985E-18
  -21.07000       -2.9400981E-18
  -20.88000       -2.9400977E-18
  -20.69000       -2.9400979E-18
  -20.50000       -2.9400979E-18
  -20.31000       -2.9400987E-18
  -20.12000       -2.9400987E-18
  -19.93000       -2.9400983E-18
  -19.74000       -2.9400985E-18
  -19.55000       -2.9400987E-18
  -19.36000       -2.9400989E-18
  -19.17000       -2.9400993E-18
  -18.98000       -2.9400991E-18
  -18.79000       -2.9400995E-18
  -18.60000       -2.9400993E-18
  -18.41000       -2.9400989E-18
  -18.22000       -2.9400987E-18
  -18.03000       -2.9400985E-18
  -17.84000       -2.9400979E-18
  -17.65000       -2.9400975E-18
  -17.46000       -2.9400969E-18
  -17.27000       -2.9400964E-18
  -17.08000       -2.9400971E-18
  -16.89000       -2.9400987E-18
  -16.70000       -2.9401000E-18
  -16.51000       -2.9401008E-18
  -16.32000       -2.9401008E-18
  -16.13000       -2.9401002E-18
  -15.94000       -2.9400989E-18
  -15.75000       -2.9400981E-18
  -15.56000       -2.9400983E-18
  -15.37000       -2.9400985E-18
  -15.18000       -2.9400983E-18
  -14.99000       -2.9400983E-18
  -14.80000       -2.9400985E-18
  -14.61000       -2.9400993E-18
  -14.42000       -2.9401000E-18
  -14.23000       -2.9401006E-18
  -14.04000       -2.9401008E-18
  -13.85000       -2.9401010E-18
  -13.66000       -2.9401004E-18
  -13.47000       -2.9400995E-18
  -13.28000       -2.9401000E-18
  -13.09000       -2.9401012E-18
  -12.90000       -2.9401018E-18
  -12.71000       -2.9401022E-18
  -12.52000       -2.9401018E-18
  -12.33000       -2.9401016E-18
  -12.14000       -2.9401018E-18
  -11.95000       -2.9401024E-18
  -11.76000       -2.9401031E-18
  -11.57000       -2.9401020E-18
  -11.38000       -2.9401000E-18
  -11.19000       -2.9400977E-18
  -11.00000       -2.9400962E-18
  -10.81000       -2.9400954E-18
  -10.62000       -2.9400962E-18
  -10.43000       -2.9400977E-18
  -10.24000       -2.9400983E-18
  -10.05000       -2.9400977E-18
  -9.860000       -2.9400971E-18
  -9.670000       -2.9400964E-18
  -9.480000       -2.9400971E-18
  -9.290000       -2.9400977E-18
  -9.100000       -2.9400987E-18
  -8.910000       -2.9400993E-18
  -8.720000       -2.9400989E-18
  -8.530000       -2.9400985E-18
  -8.340000       -2.9400981E-18
  -8.150000       -2.9400987E-18
  -7.960000       -2.9400989E-18
  -7.770000       -2.9400987E-18
  -7.580000       -2.9400981E-18
  -7.390000       -2.9400969E-18
  -7.200000       -2.9400962E-18
  -7.010000       -2.9400971E-18
  -6.820000       -2.9400985E-18
  -6.630000       -2.9400989E-18
  -6.440000       -2.9400985E-18
  -6.250000       -2.9400975E-18
  -6.060000       -2.9400966E-18
  -5.870000       -2.9400969E-18
  -5.680000       -2.9400989E-18
  -5.490000       -2.9401018E-18
  -5.300000       -2.9401043E-18
  -5.110000       -2.9401043E-18
  -4.920000       -2.9401022E-18
  -4.730000       -2.9400997E-18
  -4.540000       -2.9400979E-18
  -4.350000       -2.9400971E-18
  -4.160000       -2.9400977E-18
  -3.970000       -2.9400971E-18
  -3.780000       -2.9400960E-18
  -3.590000       -2.9400938E-18
  -3.400000       -2.9400911E-18
  -3.210000       -2.9400888E-18
  -3.020000       -2.9400886E-18
  -2.830000       -2.9400907E-18
  -2.640000       -2.9400931E-18
  -2.450000       -2.9400956E-18
  -2.260000       -2.9400977E-18
  -2.070000       -2.9401002E-18
  -1.880000       -2.9401037E-18
  -1.690000       -2.9401082E-18
  -1.500000       -2.9401132E-18
  -1.310000       -2.9401161E-18
  -1.120000       -2.9401159E-18
 -0.9300000       -2.9401124E-18
 -0.7400000       -2.9401074E-18
 -0.5500000       -2.9401026E-18
 -0.3600000       -2.9400995E-18
 -0.1700000       -2.9400985E-18
  2.0000000E-02   -2.9400981E-18
  0.2100000       -2.9400983E-18
  0.4000000       -2.9400989E-18
  0.5900000       -2.9400989E-18
  0.7800000       -2.9400985E-18
  0.9700000       -2.9400987E-18
   1.160000       -2.9400985E-18
   1.350000       -2.9400989E-18
   1.540000       -2.9400997E-18
   1.730000       -2.9401004E-18
   1.920000       -2.9401006E-18
   2.110000       -2.9400997E-18
   2.300000       -2.9400991E-18
   2.490000       -2.9400981E-18
   2.680000       -2.9400971E-18
   2.870000       -2.9400956E-18
   3.060000       -2.9400942E-18
   3.250000       -2.9400931E-18
   3.440000       -2.9400931E-18
   3.630000       -2.9400938E-18
   3.820000       -2.9400954E-18
   4.010000       -2.9400971E-18
   4.200000       -2.9400975E-18
   4.390000       -2.9400971E-18
   4.580000       -2.9400966E-18
   4.770000       -2.9400975E-18
   4.960000       -2.9401000E-18
   5.150000       -2.9401029E-18
   5.340000       -2.9401047E-18
   5.530000       -2.9401039E-18
   5.720000       -2.9401014E-18
   5.910000       -2.9400975E-18
   6.100000       -2.9400933E-18
   6.290000       -2.9400913E-18
   6.480000       -2.9400907E-18
   6.670000       -2.9400919E-18
   6.860000       -2.9400946E-18
   7.050000       -2.9400971E-18
   7.240000       -2.9400995E-18
   7.430000       -2.9401024E-18
   7.620000       -2.9401045E-18
   7.810000       -2.9401060E-18
   8.000000       -2.9401043E-18
   8.190000       -2.9401012E-18
   8.380000       -2.9400975E-18
   8.570000       -2.9400960E-18
   8.760000       -2.9400973E-18
   8.950000       -2.9401002E-18
   9.140000       -2.9401035E-18
   9.330000       -2.9401057E-18
   9.520000       -2.9401064E-18
   9.710000       -2.9401057E-18
   9.900000       -2.9401068E-18
   10.09000       -2.9401093E-18
   10.28000       -2.9401105E-18
   10.47000       -2.9401091E-18
   10.66000       -2.9401031E-18
   10.85000       -2.9400940E-18
   11.04000       -2.9400861E-18
   11.23000       -2.9400828E-18
   11.42000       -2.9400849E-18
   11.61000       -2.9400904E-18
   11.80000       -2.9400962E-18
   11.99000       -2.9400987E-18
   12.18000       -2.9400975E-18
   12.37000       -2.9400956E-18
   12.56000       -2.9400966E-18
   12.75000       -2.9401012E-18
   12.94000       -2.9401062E-18
   13.13000       -2.9401088E-18
   13.32000       -2.9401068E-18
   13.51000       -2.9401012E-18
   13.70000       -2.9400956E-18
   13.89000       -2.9400931E-18
   14.08000       -2.9400958E-18
   14.27000       -2.9400995E-18
   14.46000       -2.9401006E-18
   14.65000       -2.9400973E-18
   14.84000       -2.9400909E-18
   15.03000       -2.9400855E-18
   15.22000       -2.9400849E-18
   15.41000       -2.9400894E-18
   15.60000       -2.9400952E-18
   15.79000       -2.9400971E-18
   15.98000       -2.9400944E-18
   16.17000       -2.9400894E-18
   16.36000       -2.9400880E-18
   16.55000       -2.9400927E-18
   16.74000       -2.9401024E-18
   16.93000       -2.9401120E-18
   17.12000       -2.9401151E-18
   17.31000       -2.9401099E-18
   17.50000       -2.9401006E-18
   17.69000       -2.9400946E-18
   17.88000       -2.9400971E-18
   18.07000       -2.9401062E-18
   18.26000       -2.9401153E-18
   18.45000       -2.9401182E-18
   18.64000       -2.9401128E-18
   18.83000       -2.9401039E-18
   19.02000       -2.9400966E-18
   19.21000       -2.9400971E-18
   19.40000       -2.9401033E-18
   19.59000       -2.9401082E-18
   19.78000       -2.9401076E-18
   19.97000       -2.9401004E-18
   20.16000       -2.9400917E-18
   20.35000       -2.9400882E-18
   20.54000       -2.9400925E-18
   20.73000       -2.9401004E-18
   20.92000       -2.9401049E-18
   21.11000       -2.9401014E-18
   21.30000       -2.9400904E-18
   21.49000       -2.9400797E-18
   21.68000       -2.9400778E-18
   21.87000       -2.9400861E-18
   22.06000       -2.9400979E-18
   22.25000       -2.9401068E-18
   22.44000       -2.9401062E-18
   22.63000       -2.9400989E-18
   22.82000       -2.9400925E-18
   23.01000       -2.9400935E-18
   23.20000       -2.9401033E-18
   23.39000       -2.9401140E-18
   23.58000       -2.9401182E-18
   23.77000       -2.9401122E-18
   23.96000       -2.9400989E-18
   24.15000       -2.9400880E-18
   24.34000       -2.9400863E-18
   24.53000       -2.9400942E-18
   24.72000       -2.9401037E-18
   24.91000       -2.9401068E-18
   25.10000       -2.9401022E-18
   25.29000       -2.9400938E-18
   25.48000       -2.9400900E-18
   25.67000       -2.9400942E-18
   25.86000       -2.9401051E-18
   26.05000       -2.9401144E-18
   26.24000       -2.9401155E-18
   26.43000       -2.9401076E-18
   26.62000       -2.9400946E-18
   26.81000       -2.9400859E-18
   27.00000       -2.9400867E-18
   27.19000       -2.9400944E-18
   27.38000       -2.9401018E-18
   27.57000       -2.9401045E-18
   27.76000       -2.9401006E-18
   27.95000       -2.9400942E-18
   28.14000       -2.9400915E-18
   28.33000       -2.9400956E-18
   28.52000       -2.9401024E-18
   28.71000       -2.9401070E-18
   28.90000       -2.9401053E-18
   29.09000       -2.9400991E-18
   29.28000       -2.9400929E-18
   29.47000       -2.9400923E-18
   29.66000       -2.9400985E-18
   29.85000       -2.9401066E-18
   30.04000       -2.9401101E-18
   30.23000       -2.9401062E-18
   30.42000       -2.9400975E-18
   30.61000       -2.9400909E-18
   30.80000       -2.9400913E-18
   30.99000       -2.9400991E-18
   31.18000       -2.9401088E-18
   31.37000       -2.9401140E-18
   31.56000       -2.9401113E-18
   31.75000       -2.9401020E-18
   31.94000       -2.9400925E-18
   32.13000       -2.9400884E-18
   32.32000       -2.9400907E-18
   32.51000       -2.9400954E-18
   32.70000       -2.9400981E-18
   32.89000       -2.9400954E-18
   33.08000       -2.9400894E-18
   33.27000       -2.9400857E-18
   33.46000       -2.9400869E-18
   33.65000       -2.9400929E-18
   33.84000       -2.9401000E-18
   34.03000       -2.9401039E-18
   34.22000       -2.9401039E-18
   34.41000       -2.9401022E-18
   34.60000       -2.9401031E-18
   34.79000       -2.9401076E-18
   34.98000       -2.9401132E-18
   35.17000       -2.9401132E-18
   35.36000       -2.9401068E-18
   35.55000       -2.9400958E-18
   35.74000       -2.9400871E-18
   35.93000       -2.9400863E-18
   36.12000       -2.9400935E-18
   36.31000       -2.9401041E-18
   36.50000       -2.9401122E-18
   36.69000       -2.9401134E-18
   36.88000       -2.9401105E-18
   37.07000       -2.9401086E-18
   37.26000       -2.9401097E-18
   37.45000       -2.9401134E-18
   37.64000       -2.9401148E-18
   37.83000       -2.9401101E-18
   38.02000       -2.9400995E-18
   38.21000       -2.9400875E-18
   38.40000       -2.9400811E-18
   38.59000       -2.9400828E-18
   38.78000       -2.9400907E-18
   38.97000       -2.9400975E-18
   39.16000       -2.9400985E-18
   39.35000       -2.9400940E-18
   39.54000       -2.9400884E-18
   39.73000       -2.9400875E-18
   39.92000       -2.9400938E-18
   40.11000       -2.9401031E-18
   40.30000       -2.9401097E-18
   40.49000       -2.9401086E-18
   40.68000       -2.9401026E-18
   40.87000       -2.9400975E-18
   41.06000       -2.9400995E-18
   41.25000       -2.9401099E-18
   41.44000       -2.9401239E-18
   41.63000       -2.9401353E-18
   41.82000       -2.9401401E-18
   42.01000       -2.9401401E-18
   42.20000       -2.9401403E-18
   42.39000       -2.9401448E-18
   42.58000       -2.9401529E-18
   42.77000       -2.9401579E-18
   42.96000       -2.9401529E-18
   43.15000       -2.9401357E-18
   43.34000       -2.9401097E-18
   43.53000       -2.9400813E-18
   43.72000       -2.9400557E-18
   43.91000       -2.9400317E-18
   44.10000       -2.9400021E-18
   44.29000       -2.9399587E-18
   44.48000       -2.9399012E-18
   44.67000       -2.9398359E-18
   44.86000       -2.9397736E-18
   45.05000       -2.9397223E-18
   45.24000       -2.9396849E-18
   45.43000       -2.9396580E-18
   45.62000       -2.9396388E-18
   45.81000       -2.9396285E-18
   46.00000       -2.9396376E-18
   46.19000       -2.9396787E-18
   46.38000       -2.9397627E-18
   46.57000       -2.9398925E-18
   46.76000       -2.9400658E-18
   46.95000       -2.9402792E-18
   47.14000       -2.9405317E-18
   47.33000       -2.9408239E-18
   47.52000       -2.9411565E-18
   47.71000       -2.9415221E-18
   47.90000       -2.9419053E-18
   48.09000       -2.9422825E-18
   48.28000       -2.9426280E-18
   48.47000       -2.9429190E-18
   48.66000       -2.9431361E-18
   48.85000       -2.9432571E-18
   49.04000       -2.9432561E-18
   49.23000       -2.9431020E-18
   49.42000       -2.9427618E-18
   49.61000       -2.9422101E-18
   49.80000       -2.9414342E-18
   49.99000       -2.9404348E-18
   50.18000       -2.9392198E-18
   50.37000       -2.9378068E-18
   50.56000       -2.9362182E-18
   50.75000       -2.9344917E-18
   50.94000       -2.9326804E-18
   51.13000       -2.9308585E-18
   51.32000       -2.9291179E-18
   51.51000       -2.9275585E-18
   51.70000       -2.9262846E-18
   51.89000       -2.9254024E-18
   52.08000       -2.9250161E-18
   52.27000       -2.9252279E-18
   52.46000       -2.9261336E-18
   52.65000       -2.9278145E-18
   52.84000       -2.9303247E-18
   53.03000       -2.9336860E-18
   53.22000       -2.9378833E-18
   53.41000       -2.9428623E-18
   53.60000       -2.9485310E-18
   53.79000       -2.9547574E-18
   53.98000       -2.9613664E-18
   54.17000       -2.9681391E-18
   54.36000       -2.9748171E-18
   54.55000       -2.9811062E-18
   54.74000       -2.9866884E-18
   54.93000       -2.9912354E-18
   55.12000       -2.9944178E-18
   55.31000       -2.9959181E-18
   55.50000       -2.9954406E-18
   55.69000       -2.9927299E-18
   55.88000       -2.9875849E-18
   56.07000       -2.9798743E-18
   56.26000       -2.9695550E-18
   56.45000       -2.9566822E-18
   56.64000       -2.9414183E-18
   56.83000       -2.9240326E-18
   57.02000       -2.9049065E-18
   57.21000       -2.8845312E-18
   57.40000       -2.8635024E-18
   57.59000       -2.8425123E-18
   57.78000       -2.8223353E-18
   57.97000       -2.8038077E-18
   58.16000       -2.7877999E-18
   58.35000       -2.7751860E-18
   58.54000       -2.7668164E-18
   58.73000       -2.7634841E-18
   58.92000       -2.7658961E-18
   59.11000       -2.7746384E-18
   59.30000       -2.7901416E-18
   59.49000       -2.8126440E-18
   59.68000       -2.8421605E-18
   59.87000       -2.8784620E-18
   60.06000       -2.9210595E-18
   60.25000       -2.9692027E-18
   60.44000       -3.0218810E-18
   60.63000       -3.0778346E-18
   60.82000       -3.1355760E-18
   61.01000       -3.1934155E-18
   61.20000       -3.2495081E-18
   61.39000       -3.3019034E-18
   61.58000       -3.3486099E-18
   61.77000       -3.3876514E-18
   61.96000       -3.4171249E-18
   62.15000       -3.4352550E-18
   62.34000       -3.4404460E-18
   62.53000       -3.4313356E-18
   62.72000       -3.4068432E-18
   62.91000       -3.3662084E-18
   63.10000       -3.3090250E-18
   63.29000       -3.2352641E-18
   63.48000       -3.1452953E-18
   63.67000       -3.0399113E-18
   63.86000       -2.9203529E-18
   64.05000       -2.7883355E-18
   64.24000       -2.6460703E-18
   64.43000       -2.4962797E-18
   64.62000       -2.3422004E-18
   64.81000       -2.1875798E-18
   65.00000       -2.0366580E-18
   65.19000       -1.8941274E-18
   65.38000       -1.7650711E-18
   65.57000       -1.6548592E-18
   65.76000       -1.5690136E-18
   65.95000       -1.5130301E-18
   66.14000       -1.4921765E-18
   66.33000       -1.5112628E-18
   66.52000       -1.5743972E-18
   66.71000       -1.6847373E-18
   66.90000       -1.8442428E-18
   67.09000       -2.0534465E-18
   67.28000       -2.3112613E-18
   67.47000       -2.6148453E-18
   67.66000       -2.9595286E-18
   67.85000       -3.3388153E-18
   68.04000       -3.7444659E-18
   68.23000       -4.1666543E-18
   68.42000       -4.5941979E-18
   68.61000       -5.0148524E-18
   68.80000       -5.4156669E-18
   68.99000       -5.7833817E-18
   69.18000       -6.1048444E-18
   69.37000       -6.3674366E-18
   69.56000       -6.5594831E-18
   69.75000       -6.6706384E-18
   69.94000       -6.6922286E-18
   70.13000       -6.6175475E-18
   70.32000       -6.4420950E-18
   70.51000       -6.1637521E-18
   70.70000       -5.7828867E-18
   70.89000       -5.3023948E-18
   71.08000       -4.7276759E-18
   71.27000       -4.0665531E-18
   71.46000       -3.3291424E-18
   71.65000       -2.5276760E-18
   71.84000       -1.6762862E-18
   72.03000       -7.9075318E-19
   72.22000        1.1177252E-19
   72.41000        1.0130661E-18
   72.60000        1.8941326E-18
   72.79000        2.7354997E-18
   72.98000        3.5175008E-18
   73.17000        4.2205526E-18
   73.36000        4.8254098E-18
   73.55000        5.3134091E-18
   73.74000        5.6667009E-18
   73.93000        5.8684622E-18
   74.12000        5.9031033E-18
   74.31000        5.7564673E-18
   74.50000        5.4160416E-18
   74.69000        4.8712017E-18
   74.88000        4.1134861E-18
   75.07000        3.1369340E-18
   75.26000        1.9384789E-18
   75.45000        5.1841472E-19
   75.64000       -1.1190499E-18
   75.83000       -2.9651511E-18
   76.02000       -5.0058452E-18
   76.21000       -7.2210154E-18
   76.40000       -9.5836410E-18
   76.59000       -1.2058998E-17
   76.78000       -1.4603917E-17
   76.97000       -1.7166236E-17
   77.16000       -1.9684487E-17
   77.35000       -2.2087943E-17
   77.54000       -2.4297152E-17
   77.73000       -2.6225023E-17
   77.92000       -2.7778571E-17
   78.11000       -2.8861377E-17
   78.30000       -2.9376770E-17
   78.49000       -2.9231679E-17
   78.68000       -2.8341094E-17
   78.87000       -2.6632954E-17
   79.06000       -2.4053309E-17
   79.25000       -2.0571447E-17
   79.44000       -1.6184796E-17
   79.63000       -1.0923178E-17
   79.82000       -4.8522096E-18
   80.01000        1.9245323E-18
   80.20000        9.2647736E-18
   80.39000        1.6988501E-17
   80.58000        2.4880666E-17
   80.77000        3.2695770E-17
   80.96000        4.0164277E-17
   81.15000        4.7000713E-17
   81.34000        5.2913331E-17
   81.53000        5.7614943E-17
   81.72000        6.0834667E-17
   81.91000        6.2330111E-17
   82.10000        6.1899513E-17
   82.29000        5.9393401E-17
   82.48000        5.4725108E-17
   82.67000        4.7879748E-17
   82.86000        3.8921091E-17
   83.05000        2.7995809E-17
   83.24000        1.5334736E-17
   83.43000        1.2508452E-18
   83.62000       -1.3866401E-17
   83.81000       -2.9560295E-17
   84.00000       -4.5319657E-17
   84.19000       -6.0595023E-17
   84.38000       -7.4817712E-17
   84.57000       -8.7421218E-17
   84.76000       -9.7864235E-17
   84.95000       -1.0565433E-16
   85.14000       -1.1037134E-16
   85.33000       -1.1168937E-16
   85.52000       -1.0939614E-16
   85.71000       -1.0340900E-16
   85.90000       -9.3786055E-17
   86.09000       -8.0732126E-17
   86.28000       -6.4598432E-17
   86.47000       -4.5875880E-17
   86.66000       -2.5181664E-17
   86.85000       -3.2394721E-18
   87.04000        1.9146248E-17
   87.23000        4.1121097E-17
   87.42000        6.1815512E-17
   87.61000        8.0382077E-17
   87.80000        9.6033849E-17
   87.99000        1.0808168E-16
   88.18000        1.1596897E-16
   88.37000        1.1930188E-16
   88.56000        1.1787316E-16
   88.75000        1.1167829E-16
   88.94000        1.0092269E-16
   89.13000        8.6019088E-17
   89.32000        6.7574813E-17
   89.51000        4.6369303E-17
   89.70000        2.3322465E-17
   89.89000       -5.4486320E-19
   90.08000       -2.4156536E-17
   90.27000       -4.6430670E-17
   90.46000       -6.6330806E-17
   90.65000       -8.2916055E-17
   90.84000       -9.5387768E-17
   91.03000       -1.0313017E-16
   91.22000       -1.0574304E-16
   91.41000       -1.0306449E-16
   91.60000       -9.5183025E-17
   91.79000       -8.2437627E-17
   91.98000       -6.5406408E-17
   92.17000       -4.4883988E-17
   92.36000       -2.1848494E-17
   92.55000        2.5801937E-18
   92.74000        2.7189189E-17
   92.93000        5.0726669E-17
   93.12000        7.1958519E-17
   93.31000        8.9726061E-17
   93.50000        1.0300207E-16
   93.69000        1.1094269E-16
   93.88000        1.1293350E-16
   94.07000        1.0862740E-16
   94.26000        9.7972383E-17
   94.45000        8.1227555E-17
   94.64000        5.8966152E-17
   94.83000        3.2064333E-17
   95.02000        1.6752749E-18
   95.21000       -3.0811535E-17
   95.40000       -6.3824872E-17
   95.59000       -9.5679141E-17
   95.78000       -1.2465207E-16
   95.97000       -1.4906963E-16
   96.16000       -1.6739507E-16
   96.35000       -1.7831691E-16
   96.54000       -1.8083175E-16
   96.73000       -1.7431747E-16
   96.92000       -1.5859064E-16
   97.11000       -1.3394529E-16
   97.30000       -1.0116841E-16
   97.49000       -6.1529784E-17
   97.68000       -1.6744668E-17
   97.87000        3.1090268E-17
   98.06000        7.9586475E-17
   98.25000        1.2617495E-16
   98.44000        1.6823518E-16
   98.63000        2.0323454E-16
   98.82000        2.2887164E-16
   99.01000        2.4321508E-16
   99.20000        2.4482950E-16
   99.39000        2.3288033E-16
   99.58000        2.0721099E-16
   99.77000        1.6838568E-16
   99.96000        1.1769383E-16
   100.1500        5.7114611E-17
   100.3400       -1.0758799E-17
   100.5300       -8.2831835E-17
   100.7200       -1.5565243E-16
   100.9100       -2.2557922E-16
   101.1000       -2.8896394E-16
   101.2900       -3.4233816E-16
   101.4800       -3.8259314E-16
   101.6700       -4.0714245E-16
   101.8600       -4.1405845E-16
   102.0500       -4.0217434E-16
   102.2400       -3.7114734E-16
   102.4300       -3.2147995E-16
   102.6200       -2.5449965E-16
   102.8100       -1.7230035E-16
   103.0000       -7.7649668E-17
   103.1900        2.6130149E-17
   103.3800        1.3530056E-16
   103.5700        2.4585602E-16
   103.7600        3.5367654E-16
   103.9500        4.5467691E-16
   104.1400        5.4494717E-16
   104.3300        6.2088060E-16
   104.5200        6.7928707E-16
   104.7100        7.1749133E-16
   104.9000        7.3341486E-16
   105.0900        7.2564349E-16
   105.2800        6.9347937E-16
   105.4700        6.3697820E-16
   105.6600        5.5697027E-16
   105.8500        4.5506400E-16
   106.0400        3.3362942E-16
   106.2300        1.9575839E-16
   106.4200        4.5199405E-17
   106.6100       -1.1373519E-16
   106.8000       -2.7629124E-16
   106.9900       -4.3742123E-16
   107.1800       -5.9195734E-16
   107.3700       -7.3480203E-16
   107.5600       -8.6112890E-16
   107.7500       -9.6658297E-16
   107.9400       -1.0474695E-15
   108.1300       -1.1009187E-15
   108.3200       -1.1250162E-15
   108.5100       -1.1188884E-15
   108.7000       -1.0827350E-15
   108.8900       -1.0178068E-15
   109.0800       -9.2632529E-16
   109.2700       -8.1135100E-16
   109.4600       -6.7660738E-16
   109.6500       -5.2627110E-16
   109.8400       -3.6474552E-16
   110.0300       -1.9643151E-16
   110.2200       -2.5514219E-17
   110.4100        1.4422010E-16
   110.6000        3.0952180E-16
   110.7900        4.6776007E-16
   110.9800        6.1694598E-16
   111.1700        7.5569283E-16
   111.3600        8.8312253E-16
   111.5500        9.9872490E-16
   111.7400        1.1021865E-15
   111.9300        1.1932055E-15
   112.1200        1.2713121E-15
   112.3100        1.3357157E-15
   112.5000        1.3851948E-15
   112.6900        1.4180451E-15
   112.8800        1.4320961E-15
   113.0700        1.4247978E-15
   113.2600        1.3933765E-15
   113.4500        1.3350473E-15
   113.6400        1.2472698E-15
   113.8300        1.1280251E-15
   114.0200        9.7609282E-16
   114.2100        7.9130167E-16
   114.4000        5.7473292E-16
   114.5900        3.2885525E-16
   114.7800        5.7576482E-17
   114.9700       -2.3379597E-16
   115.1600       -5.3868686E-16
   115.3500       -8.4947113E-16
   115.5400       -1.1577656E-15
   115.7300       -1.4547747E-15
   115.9200       -1.7316693E-15
   116.1100       -1.9799730E-15
   116.3000       -2.1919320E-15
   116.4900       -2.3608458E-15
   116.6800       -2.4813400E-15
   116.8700       -2.5495679E-15
   117.0600       -2.5633311E-15
   117.2500       -2.5221202E-15
   117.4400       -2.4270751E-15
   117.6300       -2.2808774E-15
   117.8200       -2.0875819E-15
   118.0100       -1.8524062E-15
   118.2000       -1.5814885E-15
   118.3900       -1.2816315E-15
   118.5800       -9.6004652E-16
   118.7700       -6.2410483E-16
   118.9600       -2.8110800E-16
   119.1500        6.1921377E-17
   119.3400        3.9842278E-16
   119.5300        7.2245611E-16
   119.7200        1.0288354E-15
   119.9100        1.3132367E-15
   120.1000        1.5722808E-15
   120.2900        1.8035917E-15
   120.4800        2.0058255E-15
   120.6700        2.1786681E-15
   120.8600        2.3227973E-15
   121.0500        2.4398028E-15
   121.2400        2.5320610E-15
   121.4300        2.6025591E-15
   121.6200        2.6546726E-15
   121.8100        2.6918946E-15
   122.0000        2.7175273E-15
   122.1900        2.7343522E-15
   122.3800        2.7442857E-15
   122.5700        2.7480538E-15
   122.7600        2.7449053E-15
   122.9500        2.7323923E-15
   123.1400        2.7062446E-15
   123.3300        2.6603619E-15
   123.5200        2.5869409E-15
   123.7100        2.4767510E-15
   123.9000        2.3195601E-15
   124.0900        2.1047003E-15
   124.2800        1.8217597E-15
   124.4700        1.4613642E-15
   124.6600        1.0160077E-15
   124.8500        4.8088543E-16
   125.0400       -1.4532752E-16
   125.2300       -8.5980605E-16
   125.4200       -1.6550691E-15
   125.6100       -2.5186885E-15
   125.8000       -3.4332418E-15
   125.9900       -4.3765443E-15
   126.1800       -5.3221604E-15
   126.3700       -6.2401917E-15
   126.5600       -7.0983123E-15
   126.7500       -7.8630119E-15
   126.9400       -8.5009836E-15
   127.1300       -8.9805948E-15
   127.3200       -9.2733548E-15
   127.5100       -9.3553171E-15
   127.7000       -9.2083290E-15
   127.8900       -8.8210613E-15
   128.0800       -8.1897735E-15
   128.2700       -7.3187543E-15
   128.4600       -6.2204342E-15
   128.6500       -4.9151505E-15
   128.8400       -3.4305889E-15
   129.0300       -1.8009161E-15
   129.2200       -6.5669670E-17
   129.4100        1.7315502E-15
   129.6000        3.5445301E-15
   129.7900        5.3259492E-15
   129.9800        7.0288945E-15
   130.1700        8.6083086E-15
   130.3600        1.0022320E-14
   130.5500        1.1233417E-14
   130.7400        1.2209421E-14
   130.9300        1.2924264E-14
   131.1200        1.3358532E-14
   131.3100        1.3499813E-14
   131.5000        1.3342841E-14
   131.6900        1.2889451E-14
   131.8800        1.2148392E-14
   132.0700        1.1134993E-14
   132.2600        9.8707460E-15
   132.4500        8.3827793E-15
   132.6400        6.7032781E-15
   132.8300        4.8688364E-15
   133.0200        2.9197448E-15
   133.2100        8.9921716E-16
   133.4000       -1.1474473E-15
   133.5900       -3.1737751E-15
   133.7800       -5.1331052E-15
   133.9700       -6.9796464E-15
   134.1600       -8.6695948E-15
   134.3500       -1.0162290E-14
   134.5400       -1.1421379E-14
   134.7300       -1.2415934E-14
   134.9200       -1.3121495E-14
   135.1100       -1.3520941E-14
   135.3000       -1.3605184E-14
   135.4900       -1.3373572E-14
   135.6800       -1.2834022E-14
   135.8700       -1.2002798E-14
   136.0600       -1.0903959E-14
   136.2500       -9.5684730E-15
   136.4400       -8.0330402E-15
   136.6300       -6.3386864E-15
   136.8200       -4.5292135E-15
   137.0100       -2.6495820E-15
   137.2000       -7.4434190E-16
   137.3900        1.1438005E-15
   137.5800        2.9751977E-15
   137.7700        4.7141784E-15
   137.9600        6.3296299E-15
   138.1500        7.7952264E-15
   138.3400        9.0893200E-15
   138.5300        1.0194539E-14
   138.7200        1.1097178E-14
   138.9100        1.1786456E-14
   139.1000        1.2253769E-14
   139.2900        1.2492032E-14
   139.4800        1.2495209E-14
   139.6700        1.2258108E-14
   139.8600        1.1776507E-14
   140.0500        1.1047604E-14
   140.2400        1.0070800E-14
   140.4300        8.8487169E-15
   140.6200        7.3883889E-15
   140.8100        5.7024897E-15
   141.0000        3.8104599E-15
   141.1900        1.7394086E-15
   141.3800       -4.7535881E-16
   141.5700       -2.7902906E-15
   141.7600       -5.1541049E-15
   141.9500       -7.5088835E-15
   142.1400       -9.7917796E-15
   142.3300       -1.1937201E-14
   142.5200       -1.3879423E-14