  -30.00000       -4.5100167E-19
  -29.81000       -4.5100167E-19
  -29.62000       -4.5100167E-19
  -29.43000       -4.5100167E-19
  -29.24000       -4.5100172E-19
  -29.05000       -4.5100172E-19
  -28.86000       -4.5100172E-19
  -28.67000       -4.5100172E-19
  -28.48000       -4.5100167E-19
  -28.29000       -4.5100162E-19
  -28.10000       -4.5100157E-19
  -27.91000       -4.5100151E-19
  -27.72000       -4.5100146E-19
  -27.53000       -4.5100162E-19
  -27.34000       -4.5100177E-19
  -27.15000       -4.5100182E-19
  -26.96000       -4.5100198E-19
  -26.77000       -4.5100146E-19
  -26.58000       -4.5100131E-19
  -26.39000       -4.5100110E-19
  -26.20000       -4.5100151E-19
  -26.01000       -4.5100141E-19
  -25.82000       -4.5100151E-19
  -25.63000       -4.5100141E-19
  -25.44000       -4.5100136E-19
  -25.25000       -4.5100126E-19
  -25.06000       -4.5100193E-19
  -24.87000       -4.5100239E-19
  -24.68000       -4.5100198E-19
  -24.49000       -4.5100095E-19
  -24.30000       -4.5100012E-19
  -24.11000       -4.5099914E-19
  -23.92000       -4.5099939E-19
  -23.73000       -4.5100007E-19
  -23.54000       -4.5100167E-19
  -23.35000       -4.5100317E-19
  -23.16000       -4.5100358E-19
  -22.97000       -4.5100338E-19
  -22.78000       -4.5100301E-19
  -22.59000       -4.5100306E-19
  -22.40000       -4.5100312E-19
  -22.21000       -4.5100332E-19
  -22.02000       -4.5100213E-19
  -21.83000       -4.5100115E-19
  -21.64000       -4.5099991E-19
  -21.45000       -4.5099929E-19
  -21.26000       -4.5099934E-19
  -21.07000       -4.5100100E-19
  -20.88000       -4.5100286E-19
  -20.69000       -4.5100394E-19
  -20.50000       -4.5100353E-19
  -20.31000       -4.5100296E-19
  -20.12000       -4.5100198E-19
  -19.93000       -4.5100151E-19
  -19.74000       -4.5100224E-19
  -19.55000       -4.5100348E-19
  -19.36000       -4.5100363E-19
  -19.17000       -4.5100265E-19
  -18.98000       -4.5100115E-19
  -18.79000       -4.5100027E-19
  -18.60000       -4.5100012E-19
  -18.41000       -4.5100074E-19
  -18.22000       -4.5100229E-19
  -18.03000       -4.5100389E-19
  -17.84000       -4.5100389E-19
  -17.65000       -4.5100270E-19
  -17.46000       -4.5100146E-19
  -17.27000       -4.5100095E-19
  -17.08000       -4.5100110E-19
  -16.89000       -4.5100203E-19
  -16.70000       -4.5100250E-19
  -16.51000       -4.5100151E-19
  -16.32000       -4.5099914E-19
  -16.13000       -4.5099795E-19
  -15.94000       -4.5099831E-19
  -15.75000       -4.5100095E-19
  -15.56000       -4.5100301E-19
  -15.37000       -4.5100410E-19
  -15.18000       -4.5100286E-19
  -14.99000       -4.5100089E-19
  -14.80000       -4.5099945E-19
  -14.61000       -4.5100043E-19
  -14.42000       -4.5100353E-19
  -14.23000       -4.5100549E-19
  -14.04000       -4.5100570E-19
  -13.85000       -4.5100410E-19
  -13.66000       -4.5100167E-19
  -13.47000       -4.5099939E-19
  -13.28000       -4.5099960E-19
  -13.09000       -4.5100177E-19
  -12.90000       -4.5100415E-19
  -12.71000       -4.5100503E-19
  -12.52000       -4.5100343E-19
  -12.33000       -4.5100089E-19
  -12.14000       -4.5099867E-19
  -11.95000       -4.5099790E-19
  -11.76000       -4.5099836E-19
  -11.57000       -4.5099857E-19
  -11.38000       -4.5099908E-19
  -11.19000       -4.5099976E-19
  -11.00000       -4.5100043E-19
  -10.81000       -4.5100198E-19
  -10.62000       -4.5100379E-19
  -10.43000       -4.5100487E-19
  -10.24000       -4.5100441E-19
  -10.05000       -4.5100281E-19
  -9.860000       -4.5100120E-19
  -9.670000       -4.5100079E-19
  -9.480000       -4.5100157E-19
  -9.290000       -4.5100343E-19
  -9.100000       -4.5100446E-19
  -8.910000       -4.5100425E-19
  -8.720000       -4.5100219E-19
  -8.530000       -4.5100048E-19
  -8.340000       -4.5099996E-19
  -8.150000       -4.5100079E-19
  -7.960000       -4.5100177E-19
  -7.770000       -4.5100182E-19
  -7.580000       -4.5100017E-19
  -7.390000       -4.5099903E-19
  -7.200000       -4.5099852E-19
  -7.010000       -4.5099955E-19
  -6.820000       -4.5100234E-19
  -6.630000       -4.5100431E-19
  -6.440000       -4.5100493E-19
  -6.250000       -4.5100400E-19
  -6.060000       -4.5100224E-19
  -5.870000       -4.5100162E-19
  -5.680000       -4.5100219E-19
  -5.490000       -4.5100327E-19
  -5.300000       -4.5100275E-19
  -5.110000       -4.5100100E-19
  -4.920000       -4.5099821E-19
  -4.730000       -4.5099665E-19
  -4.540000       -4.5099702E-19
  -4.350000       -4.5099981E-19
  -4.160000       -4.5100327E-19
  -3.970000       -4.5100451E-19
  -3.780000       -4.5100291E-19
  -3.590000       -4.5099914E-19
  -3.400000       -4.5099603E-19
  -3.210000       -4.5099505E-19
  -3.020000       -4.5099722E-19
  -2.830000       -4.5099970E-19
  -2.640000       -4.5100058E-19
  -2.450000       -4.5099939E-19
  -2.260000       -4.5099738E-19
  -2.070000       -4.5099655E-19
  -1.880000       -4.5099903E-19
  -1.690000       -4.5100420E-19
  -1.500000       -4.5100906E-19
  -1.310000       -4.5101030E-19
  -1.120000       -4.5100813E-19
 -0.9300000       -4.5100363E-19
 -0.7400000       -4.5100012E-19
 -0.5500000       -4.5099970E-19
 -0.3600000       -4.5100167E-19
 -0.1700000       -4.5100405E-19
  2.0000000E-02   -4.5100431E-19
  0.2100000       -4.5100213E-19
  0.4000000       -4.5099945E-19
  0.5900000       -4.5099795E-19
  0.7800000       -4.5099883E-19
  0.9700000       -4.5100182E-19
   1.160000       -4.5100420E-19
   1.350000       -4.5100472E-19
   1.540000       -4.5100301E-19
   1.730000       -4.5100043E-19
   1.920000       -4.5100038E-19
   2.110000       -4.5100317E-19
   2.300000       -4.5100720E-19
   2.490000       -4.5100968E-19
   2.680000       -4.5100870E-19
   2.870000       -4.5100487E-19
   3.060000       -4.5100058E-19
   3.250000       -4.5099831E-19
   3.440000       -4.5099877E-19
   3.630000       -4.5100120E-19
   3.820000       -4.5100343E-19
   4.010000       -4.5100508E-19
   4.200000       -4.5100513E-19
   4.390000       -4.5100436E-19
   4.580000       -4.5100389E-19
   4.770000       -4.5100524E-19
   4.960000       -4.5100684E-19
   5.150000       -4.5100767E-19
   5.340000       -4.5100534E-19
   5.530000       -4.5100048E-19
   5.720000       -4.5099464E-19
   5.910000       -4.5099159E-19
   6.100000       -4.5099102E-19
   6.290000       -4.5099319E-19
   6.480000       -4.5099588E-19
   6.670000       -4.5099758E-19
   6.860000       -4.5099929E-19
   7.050000       -4.5100089E-19
   7.240000       -4.5100348E-19
   7.430000       -4.5100643E-19
   7.620000       -4.5100958E-19
   7.810000       -4.5101041E-19
   8.000000       -4.5100958E-19
   8.190000       -4.5100710E-19
   8.380000       -4.5100420E-19
   8.570000       -4.5100208E-19
   8.760000       -4.5100126E-19
   8.950000       -4.5100115E-19
   9.140000       -4.5100126E-19
   9.330000       -4.5100001E-19
   9.520000       -4.5099764E-19
   9.710000       -4.5099572E-19
   9.900000       -4.5099629E-19
   10.09000       -4.5099857E-19
   10.28000       -4.5100182E-19
   10.47000       -4.5100363E-19
   10.66000       -4.5100462E-19
   10.85000       -4.5100498E-19
   11.04000       -4.5100596E-19
   11.23000       -4.5100751E-19
   11.42000       -4.5100896E-19
   11.61000       -4.5100901E-19
   11.80000       -4.5100668E-19
   11.99000       -4.5100188E-19
   12.18000       -4.5099764E-19
   12.37000       -4.5099536E-19
   12.56000       -4.5099562E-19
   12.75000       -4.5099717E-19
   12.94000       -4.5099893E-19
   13.13000       -4.5099945E-19
   13.32000       -4.5099898E-19
   13.51000       -4.5099852E-19
   13.70000       -4.5099877E-19
   13.89000       -4.5099981E-19
   14.08000       -4.5100177E-19
   14.27000       -4.5100286E-19
   14.46000       -4.5100312E-19
   14.65000       -4.5100312E-19
   14.84000       -4.5100415E-19
   15.03000       -4.5100632E-19
   15.22000       -4.5100911E-19
   15.41000       -4.5101092E-19
   15.60000       -4.5101118E-19
   15.79000       -4.5100917E-19
   15.98000       -4.5100627E-19
   16.17000       -4.5100462E-19
   16.36000       -4.5100374E-19
   16.55000       -4.5100353E-19
   16.74000       -4.5100260E-19
   16.93000       -4.5100038E-19
   17.12000       -4.5099743E-19
   17.31000       -4.5099428E-19
   17.50000       -4.5099076E-19
   17.69000       -4.5098750E-19
   17.88000       -4.5098352E-19
   18.07000       -4.5097846E-19
   18.26000       -4.5097520E-19
   18.45000       -4.5097789E-19
   18.64000       -4.5098905E-19
   18.83000       -4.5101087E-19
   19.02000       -4.5103936E-19
   19.21000       -4.5106583E-19
   19.40000       -4.5108170E-19
   19.59000       -4.5108041E-19
   19.78000       -4.5106169E-19
   19.97000       -4.5103103E-19
   20.16000       -4.5099572E-19
   20.35000       -4.5096026E-19
   20.54000       -4.5092490E-19
   20.73000       -4.5088685E-19
   20.92000       -4.5084595E-19
   21.11000       -4.5080971E-19
   21.30000       -4.5079374E-19
   21.49000       -4.5081917E-19
   21.68000       -4.5090473E-19
   21.87000       -4.5105507E-19
   22.06000       -4.5125344E-19
   22.25000       -4.5146122E-19
   22.44000       -4.5162474E-19
   22.63000       -4.5169309E-19
   22.82000       -4.5163446E-19
   23.01000       -4.5144411E-19
   23.20000       -4.5114694E-19
   23.39000       -4.5078800E-19
   23.58000       -4.5041608E-19
   23.77000       -4.5007285E-19
   23.96000       -4.4978458E-19
   24.15000       -4.4957008E-19
   24.34000       -4.4944895E-19
   24.53000       -4.4945360E-19
   24.72000       -4.4962638E-19
   24.91000       -4.5000445E-19
   25.10000       -4.5059919E-19
   25.29000       -4.5137669E-19
   25.48000       -4.5225573E-19
   25.67000       -4.5312571E-19
   25.86000       -4.5388207E-19
   26.05000       -4.5445629E-19
   26.24000       -4.5482831E-19
   26.43000       -4.5500274E-19
   26.62000       -4.5497110E-19
   26.81000       -4.5467663E-19
   27.00000       -4.5401323E-19
   27.19000       -4.5286484E-19
   27.38000       -4.5117688E-19
   27.57000       -4.4901799E-19
   27.76000       -4.4659564E-19
   27.95000       -4.4420488E-19
   28.14000       -4.4213388E-19
   28.33000       -4.4056947E-19
   28.52000       -4.3956331E-19
   28.71000       -4.3907926E-19
   28.90000       -4.3910190E-19
   29.09000       -4.3973237E-19
   29.28000       -4.4119761E-19
   29.47000       -4.4374481E-19
   29.66000       -4.4746077E-19
   29.85000       -4.5211759E-19
   30.04000       -4.5716504E-19
   30.23000       -4.6191611E-19
   30.42000       -4.6587655E-19
   30.61000       -4.6904956E-19
   30.80000       -4.7201919E-19
   30.99000       -4.7570071E-19
   31.18000       -4.8080390E-19
   31.37000       -4.8723906E-19
   31.56000       -4.9378573E-19
   31.75000       -4.9824687E-19
   31.94000       -4.9811317E-19
   32.13000       -4.9147593E-19
   32.32000       -4.7776686E-19
   32.51000       -4.5794725E-19
   32.70000       -4.3403718E-19
   32.89000       -4.0823728E-19
   33.08000       -3.8214871E-19
   33.27000       -3.5658996E-19
   33.46000       -3.3218322E-19
   33.65000       -3.1041095E-19
   33.84000       -2.9444758E-19
   34.03000       -2.8907372E-19
   34.22000       -2.9936168E-19
   34.41000       -3.2854125E-19
   34.60000       -3.7602346E-19
   34.79000       -4.3671828E-19
   34.98000       -5.0229369E-19
   35.17000       -5.6407721E-19
   35.36000       -6.1636376E-19
   35.55000       -6.5846803E-19
   35.74000       -6.9430697E-19
   35.93000       -7.2946385E-19
   36.12000       -7.6701987E-19
   36.31000       -8.0427743E-19
   36.50000       -8.3223841E-19
   36.69000       -8.3843192E-19
   36.88000       -8.1193914E-19
   37.07000       -7.4818399E-19
   37.26000       -6.5099998E-19
   37.45000       -5.3078551E-19
   37.64000       -3.9963171E-19
   37.83000       -2.6607105E-19
   38.02000       -1.3247915E-19
   38.21000        3.1637669E-21
   38.40000        1.4190317E-19
   38.59000        2.7787626E-19
   38.78000        3.9562842E-19
   38.97000        4.7311769E-19
   39.16000        4.8982725E-19
   39.35000        4.3629373E-19
   39.54000        3.1993356E-19
   39.73000        1.6331893E-19
   39.92000       -5.3216964E-21
   40.11000       -1.6540196E-19
   40.30000       -3.1453300E-19
   40.49000       -4.7049733E-19
   40.68000       -6.6270857E-19
   40.87000       -9.1652966E-19
   41.06000       -1.2378147E-18
   41.25000       -1.6054154E-18
   41.44000       -1.9757519E-18
   41.63000       -2.2975130E-18
   41.82000       -2.5292894E-18
   42.01000       -2.6513006E-18
   42.20000       -2.6654814E-18
   42.39000       -2.5845322E-18
   42.58000       -2.4167926E-18
   42.77000       -2.1563862E-18
   42.96000       -1.7853759E-18
   43.15000       -1.2877799E-18
   43.34000       -6.6797357E-19
   43.53000        3.7624792E-20
   43.72000        7.6412701E-19
   43.91000        1.4376955E-18
   44.10000        2.0025945E-18
   44.29000        2.4420462E-18
   44.48000        2.7810668E-18
   44.67000        3.0682079E-18
   44.86000        3.3444442E-18
   45.05000        3.6151962E-18
   45.24000        3.8410082E-18
   45.43000        3.9532496E-18
   45.62000        3.8877079E-18
   45.81000        3.6182253E-18
   46.00000        3.1708728E-18
   46.19000        2.6082277E-18
   46.38000        1.9891336E-18
   46.57000        1.3237886E-18
   46.76000        5.4913719E-19
   46.95000       -4.5822140E-19
   47.14000       -1.8319416E-18
   47.33000       -3.6478454E-18
   47.52000       -5.8674394E-18
   47.71000       -8.3189314E-18
   47.90000       -1.0725237E-17
   48.09000       -1.2767448E-17
   48.28000       -1.4157342E-17
   48.47000       -1.4691297E-17
   48.66000       -1.4270672E-17
   48.85000       -1.2892961E-17
   49.04000       -1.0632730E-17
   49.23000       -7.6329117E-18
   49.42000       -4.1141887E-18
   49.61000       -3.9067179E-19
   49.80000        3.1341290E-18
   49.99000        6.0156636E-18
   50.18000        7.8665215E-18
   50.37000        8.4814948E-18
   50.56000        7.9433054E-18
   50.75000        6.6584979E-18
   50.94000        5.2929542E-18
   51.13000        4.6135155E-18
   51.32000        5.2803931E-18
   51.51000        7.6563374E-18
   51.70000        1.1693033E-17
   51.89000        1.6925373E-17
   52.08000        2.2564374E-17
   52.27000        2.7648391E-17
   52.46000        3.1203155E-17
   52.65000        3.2375472E-17
   52.84000        3.0532024E-17
   53.03000        2.5336378E-17
   53.22000        1.6820802E-17
   53.41000        5.4527676E-18
   53.60000       -7.8296202E-18
   53.79000       -2.1655479E-17
   53.98000       -3.4367177E-17
   54.17000       -4.4276417E-17
   54.36000       -4.9986051E-17
   54.55000       -5.0696315E-17
   54.74000       -4.6405947E-17
   54.93000       -3.7945941E-17
   55.12000       -2.6835903E-17
   55.31000       -1.5007147E-17
   55.50000       -4.4695542E-18
   55.69000        3.0014120E-18
   55.88000        6.1091672E-18
   56.07000        4.2003863E-18
   56.26000       -2.6391870E-18
   56.45000       -1.3547312E-17
   56.64000       -2.6916879E-17
   56.83000       -4.0528300E-17
   57.02000       -5.1813697E-17
   57.21000       -5.8252163E-17
   57.40000       -5.7840611E-17
   57.59000       -4.9532455E-17
   57.78000       -3.3516154E-17
   57.97000       -1.1234434E-17
   58.16000        1.4881330E-17
   58.35000        4.1897191E-17
   58.54000        6.6947790E-17
   58.73000        8.7737016E-17
   58.92000        1.0284818E-16
   59.11000        1.1181826E-16
   59.30000        1.1500921E-16
   59.49000        1.1335756E-16
   59.68000        1.0808969E-16
   59.87000        1.0045951E-16
   60.06000        9.1528693E-17
   60.25000        8.1988911E-17
   60.44000        7.2034117E-17
   60.63000        6.1315603E-17
   60.82000        4.9027210E-17
   61.01000        3.4150241E-17
   61.20000        1.5832437E-17
   61.39000       -6.1947291E-18
   61.58000       -3.1304538E-17
   61.77000       -5.7907771E-17
   61.96000       -8.3697721E-17
   62.15000       -1.0616501E-16
   62.34000       -1.2323283E-16
   62.53000       -1.3381025E-16
   62.72000       -1.3808346E-16
   62.91000       -1.3745755E-16
   63.10000       -1.3417985E-16
   63.29000       -1.3077170E-16
   63.48000       -1.2943274E-16
   63.67000       -1.3155173E-16
   63.86000       -1.3739335E-16
   64.05000       -1.4596632E-16
   64.24000       -1.5505216E-16
   64.43000       -1.6138536E-16
   64.62000       -1.6100446E-16
   64.81000       -1.4979979E-16
   65.00000       -1.2424308E-16
   65.19000       -8.2205725E-17
   65.38000       -2.3690380E-17
   65.57000        4.8732876E-17
   65.76000        1.2994862E-16
   65.95000        2.1281814E-16
   66.14000        2.8909658E-16
   66.33000        3.5052923E-16
   66.52000        3.8988874E-16
   66.71000        4.0178497E-16
   66.90000        3.8320038E-16
   67.09000        3.3381232E-16
   67.28000        2.5619486E-16
   67.47000        1.5593765E-16
   67.66000        4.1609915E-17
   67.85000       -7.5591900E-17
   68.04000       -1.8267760E-16
   68.23000       -2.6623725E-16
   68.42000       -3.1423017E-16
   68.61000       -3.1787958E-16
   68.80000       -2.7326725E-16
   68.99000       -1.8225706E-16
   69.18000       -5.2541034E-17
   69.37000        1.0318298E-16
   69.56000        2.6870283E-16
   69.75000        4.2616192E-16
   69.94000        5.5802880E-16
   70.13000        6.4896864E-16
   70.32000        6.8749382E-16
   70.51000        6.6729102E-16
   70.70000        5.8809069E-16
   70.89000        4.5589140E-16
   71.08000        2.8236725E-16
   71.27000        8.3394318E-17
   71.46000       -1.2316156E-16
   71.65000       -3.2002930E-16
   71.84000       -4.9297455E-16
   72.03000       -6.3259126E-16
   72.22000       -7.3510803E-16
   72.41000       -8.0214523E-16
   72.60000       -8.3963046E-16
   72.79000       -8.5623146E-16
   72.98000       -8.6167084E-16
   73.17000       -8.6517258E-16
   73.36000       -8.7413414E-16
   73.55000       -8.9303128E-16
   73.74000       -9.2256563E-16
   73.93000       -9.5915015E-16
   74.12000       -9.9490436E-16
   74.31000       -1.0183319E-15
   74.50000       -1.0157222E-15
   74.69000       -9.7311994E-16
   74.88000       -8.7850880E-16
   75.07000       -7.2375583E-16
   75.26000       -5.0593040E-16
   75.45000       -2.2780112E-16
   75.64000        1.0245243E-16
   75.83000        4.7208153E-16
   76.02000        8.6489100E-16
   76.21000        1.2624359E-15
   76.40000        1.6452207E-15
   76.59000        1.9939302E-15
   76.78000        2.2907290E-15
   76.97000        2.5205627E-15
   77.16000        2.6722744E-15
   77.35000        2.7392980E-15
   77.54000        2.7197658E-15
   77.73000        2.6160778E-15
   77.92000        2.4341984E-15
   78.11000        2.1830642E-15
   78.30000        1.8743888E-15
   78.49000        1.5228931E-15
   78.68000        1.1466433E-15
   78.87000        7.6698484E-16
   79.06000        4.0756645E-16
   79.25000        9.2249584E-17
   79.44000       -1.5787936E-16
   79.63000       -3.2779685E-16
   79.82000       -4.1135515E-16
   80.01000       -4.1294415E-16
   80.20000       -3.4764628E-16
   80.39000       -2.3990345E-16
   80.58000       -1.2102090E-16
   80.77000       -2.5953154E-17
   80.96000        1.0232009E-17
   81.15000       -4.4060020E-17
   81.34000       -2.1349101E-16
   81.53000       -5.1265838E-16
   81.72000       -9.4364584E-16
   81.91000       -1.4947380E-15
   82.10000       -2.1408129E-15
   82.29000       -2.8456985E-15
   82.48000       -3.5663678E-15
   82.67000       -4.2583362E-15
   82.86000       -4.8812569E-15
   83.05000       -5.4036738E-15
   83.24000       -5.8061563E-15
   83.43000       -6.0825398E-15
   83.62000       -6.2394276E-15
   83.81000       -6.2943772E-15
   84.00000       -6.2731531E-15
   84.19000       -6.2062638E-15
   84.38000       -6.1248783E-15
   84.57000       -6.0562771E-15
   84.76000       -6.0192266E-15
   84.95000       -6.0199631E-15
   85.14000       -6.0496021E-15
   85.33000       -6.0836820E-15
   85.52000       -6.0841157E-15
   85.71000       -6.0033363E-15
   85.90000       -5.7898852E-15
   86.09000       -5.3943941E-15
   86.28000       -4.7749526E-15
   86.47000       -3.9010954E-15
   86.66000       -2.7560616E-15
   86.85000       -1.3373758E-15
   87.04000        3.4398823E-16
   87.23000        2.2655645E-15
   87.42000        4.3962865E-15
   87.61000        6.7001594E-15
   87.80000        9.1404342E-15
   87.99000        1.1683733E-14
   88.18000        1.4303264E-14
   88.37000        1.6980310E-14
   88.56000        1.9703425E-14
   88.75000        2.2465575E-14
   88.94000        2.5259951E-14
   89.13000        2.8075581E-14
   89.32000        3.0893640E-14
   89.51000        3.3684711E-14
   89.70000        3.6406770E-14
   89.89000        3.9003292E-14
   90.08000        4.1401148E-14
   90.27000        4.3508623E-14
   90.46000        4.5214385E-14
   90.65000        4.6388562E-14
   90.84000        4.6886933E-14
   91.03000        4.6558315E-14
   91.22000        4.5254690E-14
   91.41000        4.2842652E-14
   91.60000        3.9214563E-14
   91.79000        3.4298038E-14
   91.98000        2.8062893E-14
   92.17000        2.0525555E-14
   92.36000        1.1751335E-14
   92.55000        1.8549924E-15
   92.74000       -9.0003832E-15
   92.93000       -2.0606790E-14
   93.12000       -3.2717837E-14
   93.31000       -4.5058758E-14
   93.50000       -5.7339313E-14
   93.69000       -6.9267861E-14
   93.88000       -8.0564285E-14
   94.07000       -9.0969922E-14
   94.26000       -1.0025374E-13
   94.45000       -1.0821508E-13
   94.64000       -1.1468467E-13
   94.83000       -1.1952493E-13
   95.02000       -1.2263043E-13
   95.21000       -1.2392802E-13
   95.40000       -1.2337567E-13
   95.59000       -1.2095960E-13
   95.78000       -1.1668932E-13
   95.97000       -1.1059185E-13
   96.16000       -1.0270669E-13
   96.35000       -9.3083391E-14
   96.54000       -8.1783247E-14
   96.73000       -6.8885029E-14
   96.92000       -5.4493821E-14
   97.11000       -3.8750683E-14
   97.30000       -2.1840575E-14
   97.49000       -3.9966585E-15
   97.68000        1.4499898E-14
   97.87000        3.3324231E-14
   98.06000        5.2115152E-14
   98.25000        7.0484844E-14
   98.44000        8.8030542E-14
   98.63000        1.0434825E-13
   98.82000        1.1904830E-13
   99.01000        1.3177167E-13
   99.20000        1.4220493E-13
   99.39000        1.5009188E-13
   99.58000        1.5524023E-13
   99.77000        1.5752372E-13
   99.96000        1.5688076E-13
   100.1500        1.5331147E-13
   100.3400        1.4687467E-13
   100.5300        1.3768474E-13
   100.7200        1.2590838E-13
   100.9100        1.1175986E-13
   101.1000        9.5494806E-14
   101.2900        7.7402271E-14
   101.4800        5.7796250E-14
   101.6700        3.7008011E-14
   101.8600        1.5380434E-14
   102.0500       -6.7352341E-15
   102.2400       -2.8980863E-14
   102.4300       -5.0993199E-14
   102.6200       -7.2408300E-14
   102.8100       -9.2870434E-14
   103.0000       -1.1204574E-13
   103.1900       -1.2963880E-13
   103.3800       -1.4540948E-13
   103.5700       -1.5918740E-13
   103.7600       -1.7088308E-13
   103.9500       -1.8049645E-13
   104.1400       -1.8812388E-13
   104.3300       -1.9396495E-13
   104.5200       -1.9832774E-13
   104.7100       -2.0163068E-13
   104.9000       -2.0439897E-13
   105.0900       -2.0725456E-13
   105.2800       -2.1090059E-13
   105.4700       -2.1610300E-13
   105.6600       -2.2367182E-13
   105.8500       -2.3444454E-13
   106.0400       -2.4927133E-13
   106.2300       -2.6900175E-13
   106.4200       -2.9447075E-13
   106.6100       -3.2648341E-13
   106.8000       -3.6579626E-13
   106.9900       -4.1309813E-13
   107.1800       -4.6899203E-13
   107.3700       -5.3398318E-13
   107.5600       -6.0847638E-13
   107.7500       -6.9278378E-13
   107.9400       -7.8714205E-13
   108.1300       -8.9173401E-13
   108.3200       -1.0067116E-12
   108.5100       -1.1322144E-12
   108.7000       -1.2683852E-12
   108.8900       -1.4153811E-12
   109.0800       -1.5733819E-12
   109.2700       -1.7425961E-12
   109.4600       -1.9232625E-12
   109.6500       -2.1156482E-12
   109.8400       -2.3200404E-12
   110.0300       -2.5367395E-12
   110.2200       -2.7660480E-12
   110.4100       -3.0082685E-12
   110.6000       -3.2637016E-12
   110.7900       -3.5326512E-12
   110.9800       -3.8154328E-12
   111.1700       -4.1123806E-12
   111.3600       -4.4238593E-12
   111.5500       -4.7502714E-12
   111.7400       -5.0920696E-12
   111.9300       -5.4497591E-12
   112.1200       -5.8239043E-12
   112.3100       -6.2151265E-12
   112.5000       -6.6240980E-12
   112.6900       -7.0515308E-12
   112.8800       -7.4981549E-12
   113.0700       -7.9646940E-12
   113.2600       -8.4518234E-12
   113.4500       -8.9601365E-12
   113.6400       -9.4901144E-12
   113.8300       -1.0042112E-11
   114.0200       -1.0616351E-11
   114.2100       -1.1212919E-11
   114.4000       -1.1831785E-11
   114.5900       -1.2472811E-11
   114.7800       -1.3135780E-11
   114.9700       -1.3820418E-11
   115.1600       -1.4526420E-11
   115.3500       -1.5253479E-11
   115.5400       -1.6001299E-11
   115.7300       -1.6769612E-11
   115.9200       -1.7558162E-11
   116.1100       -1.8366690E-11
   116.3000       -1.9194915E-11
   116.4900       -2.0042504E-11
   116.6800       -2.0909063E-11
   116.8700       -2.1794127E-11
   117.0600       -2.2697177E-11
   117.2500       -2.3617677E-11
   117.4400       -2.4555087E-11
   117.6300       -2.5508923E-11
   117.8200       -2.6478748E-11
   118.0100       -2.7464191E-11
   118.2000       -2.8464949E-11
   118.3900       -2.9480775E-11
   118.5800       -3.0511489E-11
   118.7700       -3.1556972E-11
   118.9600       -3.2617152E-11
   119.1500       -3.3692011E-11
   119.3400       -3.4781542E-11
   119.5300       -3.5885749E-11
   119.7200       -3.7004615E-11
   119.9100       -3.8138066E-11
   120.1000       -3.9285953E-11
   120.2900       -4.0448048E-11
   120.4800       -4.1623965E-11
   120.6700       -4.2813197E-11
   120.8600       -4.4015052E-11
   121.0500       -4.5228644E-11
   121.2400       -4.6452904E-11
   121.4300       -4.7686525E-11
   121.6200       -4.8928001E-11
   121.8100       -5.0175669E-11
   122.0000       -5.1427702E-11
   122.1900       -5.2682171E-11
   122.3800       -5.3937094E-11
   122.5700       -5.5190456E-11
   122.7600       -5.6440210E-11
   122.9500       -5.7684271E-11
   123.1400       -5.8920542E-11
   123.3300       -6.0146922E-11
   123.5200       -6.1361319E-11
   123.7100       -6.2561692E-11
   123.9000       -6.3746078E-11
   124.0900       -6.4912617E-11
   124.2800       -6.6059595E-11
   124.4700       -6.7185445E-11
   124.6600       -6.8288764E-11
   124.8500       -6.9368358E-11
   125.0400       -7.0423223E-11
   125.2300       -7.1452545E-11
   125.4200       -7.2455750E-11
   125.6100       -7.3432371E-11
   125.8000       -7.4382105E-11
   125.9900       -7.5304672E-11
   126.1800       -7.6199845E-11
   126.3700       -7.7067422E-11
   126.5600       -7.7907195E-11
   126.7500       -7.8718955E-11
   126.9400       -7.9502412E-11
   127.1300       -8.0257259E-11
   127.3200       -8.0983123E-11
   127.5100       -8.1679531E-11
   127.7000       -8.2345894E-11
   127.8900       -8.2981462E-11
   128.0800       -8.3585326E-11
   128.2700       -8.4156432E-11
   128.4600       -8.4693537E-11
   128.6500       -8.5195226E-11
   128.8400       -8.5659875E-11
   129.0300       -8.6085632E-11
   129.2200       -8.6470407E-11
   129.4100       -8.6811849E-11
   129.6000       -8.7107405E-11
   129.7900       -8.7354263E-11
   129.9800       -8.7549530E-11
   130.1700       -8.7690195E-11
   130.3600       -8.7773275E-11
   130.5500       -8.7795861E-11
   130.7400       -8.7755206E-11
   130.9300       -8.7648791E-11
   131.1200       -8.7474389E-11
   131.3100       -8.7230112E-11
   131.5000       -8.6914469E-11
   131.6900       -8.6526362E-11
   131.8800       -8.6065106E-11
   132.0700       -8.5530368E-11
   132.2600       -8.4922173E-11
   132.4500       -8.4240816E-11
   132.6400       -8.3486808E-11
   132.8300       -8.2660809E-11
   133.0200       -8.1763596E-11
   133.2100       -8.0796023E-11
   133.4000       -7.9758936E-11
   133.5900       -7.8653167E-11
   133.7800       -7.7479426E-11
   133.9700       -7.6238300E-11
   134.1600       -7.4930180E-11
   134.3500       -7.3555224E-11
   134.5400       -7.2113419E-11
   134.7300       -7.0604578E-11
   134.9200       -6.9028394E-11
   135.1100       -6.7384508E-11
   135.3000       -6.5672502E-11
   135.4900       -6.3891940E-11
   135.6800       -6.2042441E-11
   135.8700       -6.0123656E-11
   136.0600       -5.8135323E-11
   136.2500       -5.6077271E-11
   136.4400       -5.3949446E-11
   136.6300       -5.1751860E-11
   136.8200       -4.9484597E-11
   137.0100       -4.7147786E-11
   137.2000       -4.4741523E-11
   137.3900       -4.2265982E-11
   137.5800       -3.9721355E-11
   137.7700       -3.7107872E-11
   137.9600       -3.4425802E-11
   138.1500       -3.1675423E-11
   138.3400       -2.8857030E-11
   138.5300       -2.5970864E-11
   138.7200       -2.3017099E-11
   138.9100       -1.9995847E-11
   139.1000       -1.6907200E-11
   139.2900       -1.3751237E-11
   139.4800       -1.0528049E-11
   139.6700       -7.2377555E-12
   139.8600       -3.8805209E-12
   140.0500       -4.5656979E-13
   140.2400        3.0337740E-12
   140.4300        6.5900688E-12
   140.6200        1.0211743E-11
   140.8100        1.3898042E-11
   141.0000        1.7648034E-11
   141.1900        2.1460569E-11
   141.3800        2.5334327E-11
   141.5700        2.9267772E-11
   141.7600        3.3259173E-11
   141.9500        3.7306658E-11
   142.1400        4.1408196E-11
   142.3300        4.5561662E-11
   142.5200        4.9764831E-11