  -30.00000        2.2734158E-18
  -29.81000        2.2734158E-18
  -29.62000        2.2734158E-18
  -29.43000        2.2734158E-18
  -29.24000        2.2734155E-18
  -29.05000        2.2734158E-18
  -28.86000        2.2734162E-18
  -28.67000        2.2734162E-18
  -28.48000        2.2734162E-18
  -28.29000        2.2734164E-18
  -28.10000        2.2734164E-18
  -27.91000        2.2734162E-18
  -27.72000        2.2734160E-18
  -27.53000        2.2734153E-18
  -27.34000        2.2734153E-18
  -27.15000        2.2734149E-18
  -26.96000        2.2734151E-18
  -26.77000        2.2734153E-18
  -26.58000        2.2734162E-18
  -26.39000        2.2734166E-18
  -26.20000        2.2734170E-18
  -26.01000        2.2734172E-18
  -25.82000        2.2734170E-18
  -25.63000        2.2734168E-18
  -25.44000        2.2734166E-18
  -25.25000        2.2734158E-18
  -25.06000        2.2734153E-18
  -24.87000        2.2734149E-18
  -24.68000        2.2734151E-18
  -24.49000        2.2734151E-18
  -24.30000        2.2734158E-18
  -24.11000        2.2734166E-18
  -23.92000        2.2734176E-18
  -23.73000        2.2734180E-18
  -23.54000        2.2734180E-18
  -23.35000        2.2734170E-18
  -23.16000        2.2734153E-18
  -22.97000        2.2734143E-18
  -22.78000        2.2734143E-18
  -22.59000        2.2734151E-18
  -22.40000        2.2734166E-18
  -22.21000        2.2734178E-18
  -22.02000        2.2734186E-18
  -21.83000        2.2734191E-18
  -21.64000        2.2734184E-18
  -21.45000        2.2734172E-18
  -21.26000        2.2734151E-18
  -21.07000        2.2734137E-18
  -20.88000        2.2734129E-18
  -20.69000        2.2734126E-18
  -20.50000        2.2734126E-18
  -20.31000        2.2734137E-18
  -20.12000        2.2734149E-18
  -19.93000        2.2734166E-18
  -19.74000        2.2734180E-18
  -19.55000        2.2734193E-18
  -19.36000        2.2734195E-18
  -19.17000        2.2734193E-18
  -18.98000        2.2734176E-18
  -18.79000        2.2734153E-18
  -18.60000        2.2734139E-18
  -18.41000        2.2734124E-18
  -18.22000        2.2734131E-18
  -18.03000        2.2734145E-18
  -17.84000        2.2734168E-18
  -17.65000        2.2734189E-18
  -17.46000        2.2734207E-18
  -17.27000        2.2734205E-18
  -17.08000        2.2734182E-18
  -16.89000        2.2734145E-18
  -16.70000        2.2734112E-18
  -16.51000        2.2734089E-18
  -16.32000        2.2734085E-18
  -16.13000        2.2734100E-18
  -15.94000        2.2734135E-18
  -15.75000        2.2734170E-18
  -15.56000        2.2734195E-18
  -15.37000        2.2734193E-18
  -15.18000        2.2734170E-18
  -14.99000        2.2734137E-18
  -14.80000        2.2734108E-18
  -14.61000        2.2734091E-18
  -14.42000        2.2734095E-18
  -14.23000        2.2734118E-18
  -14.04000        2.2734145E-18
  -13.85000        2.2734182E-18
  -13.66000        2.2734205E-18
  -13.47000        2.2734220E-18
  -13.28000        2.2734222E-18
  -13.09000        2.2734220E-18
  -12.90000        2.2734207E-18
  -12.71000        2.2734189E-18
  -12.52000        2.2734168E-18
  -12.33000        2.2734153E-18
  -12.14000        2.2734139E-18
  -11.95000        2.2734131E-18
  -11.76000        2.2734133E-18
  -11.57000        2.2734147E-18
  -11.38000        2.2734160E-18
  -11.19000        2.2734170E-18
  -11.00000        2.2734172E-18
  -10.81000        2.2734158E-18
  -10.62000        2.2734133E-18
  -10.43000        2.2734106E-18
  -10.24000        2.2734087E-18
  -10.05000        2.2734089E-18
  -9.860000        2.2734112E-18
  -9.670000        2.2734145E-18
  -9.480000        2.2734174E-18
  -9.290000        2.2734182E-18
  -9.100000        2.2734174E-18
  -8.910000        2.2734151E-18
  -8.720000        2.2734126E-18
  -8.530000        2.2734112E-18
  -8.340000        2.2734104E-18
  -8.150000        2.2734110E-18
  -7.960000        2.2734129E-18
  -7.770000        2.2734147E-18
  -7.580000        2.2734166E-18
  -7.390000        2.2734172E-18
  -7.200000        2.2734170E-18
  -7.010000        2.2734168E-18
  -6.820000        2.2734174E-18
  -6.630000        2.2734182E-18
  -6.440000        2.2734195E-18
  -6.250000        2.2734205E-18
  -6.060000        2.2734205E-18
  -5.870000        2.2734199E-18
  -5.680000        2.2734178E-18
  -5.490000        2.2734160E-18
  -5.300000        2.2734139E-18
  -5.110000        2.2734122E-18
  -4.920000        2.2734118E-18
  -4.730000        2.2734120E-18
  -4.540000        2.2734131E-18
  -4.350000        2.2734149E-18
  -4.160000        2.2734176E-18
  -3.970000        2.2734199E-18
  -3.780000        2.2734217E-18
  -3.590000        2.2734236E-18
  -3.400000        2.2734246E-18
  -3.210000        2.2734251E-18
  -3.020000        2.2734244E-18
  -2.830000        2.2734230E-18
  -2.640000        2.2734217E-18
  -2.450000        2.2734203E-18
  -2.260000        2.2734197E-18
  -2.070000        2.2734203E-18
  -1.880000        2.2734205E-18
  -1.690000        2.2734199E-18
  -1.500000        2.2734176E-18
  -1.310000        2.2734147E-18
  -1.120000        2.2734110E-18
 -0.9300000        2.2734064E-18
 -0.7400000        2.2734046E-18
 -0.5500000        2.2734050E-18
 -0.3600000        2.2734075E-18
 -0.1700000        2.2734122E-18
  2.0000000E-02    2.2734178E-18
  0.2100000        2.2734215E-18
  0.4000000        2.2734230E-18
  0.5900000        2.2734220E-18
  0.7800000        2.2734195E-18
  0.9700000        2.2734170E-18
   1.160000        2.2734145E-18
   1.350000        2.2734133E-18
   1.540000        2.2734135E-18
   1.730000        2.2734143E-18
   1.920000        2.2734155E-18
   2.110000        2.2734155E-18
   2.300000        2.2734151E-18
   2.490000        2.2734131E-18
   2.680000        2.2734112E-18
   2.870000        2.2734093E-18
   3.060000        2.2734087E-18
   3.250000        2.2734087E-18
   3.440000        2.2734095E-18
   3.630000        2.2734114E-18
   3.820000        2.2734143E-18
   4.010000        2.2734166E-18
   4.200000        2.2734182E-18
   4.390000        2.2734189E-18
   4.580000        2.2734182E-18
   4.770000        2.2734162E-18
   4.960000        2.2734131E-18
   5.150000        2.2734098E-18
   5.340000        2.2734073E-18
   5.530000        2.2734067E-18
   5.720000        2.2734079E-18
   5.910000        2.2734114E-18
   6.100000        2.2734149E-18
   6.290000        2.2734172E-18
   6.480000        2.2734166E-18
   6.670000        2.2734131E-18
   6.860000        2.2734081E-18
   7.050000        2.2734029E-18
   7.240000        2.2734009E-18
   7.430000        2.2734025E-18
   7.620000        2.2734079E-18
   7.810000        2.2734158E-18
   8.000000        2.2734242E-18
   8.190000        2.2734311E-18
   8.380000        2.2734348E-18
   8.570000        2.2734350E-18
   8.760000        2.2734325E-18
   8.950000        2.2734286E-18
   9.140000        2.2734238E-18
   9.330000        2.2734201E-18
   9.520000        2.2734176E-18
   9.710000        2.2734160E-18
   9.900000        2.2734153E-18
   10.09000        2.2734164E-18
   10.28000        2.2734174E-18
   10.47000        2.2734180E-18
   10.66000        2.2734172E-18
   10.85000        2.2734145E-18
   11.04000        2.2734110E-18
   11.23000        2.2734060E-18
   11.42000        2.2734011E-18
   11.61000        2.2733982E-18
   11.80000        2.2733986E-18
   11.99000        2.2734027E-18
   12.18000        2.2734100E-18
   12.37000        2.2734184E-18
   12.56000        2.2734261E-18
   12.75000        2.2734306E-18
   12.94000        2.2734321E-18
   13.13000        2.2734308E-18
   13.32000        2.2734273E-18
   13.51000        2.2734240E-18
   13.70000        2.2734224E-18
   13.89000        2.2734234E-18
   14.08000        2.2734257E-18
   14.27000        2.2734282E-18
   14.46000        2.2734300E-18
   14.65000        2.2734298E-18
   14.84000        2.2734263E-18
   15.03000        2.2734203E-18
   15.22000        2.2734131E-18
   15.41000        2.2734050E-18
   15.60000        2.2733982E-18
   15.79000        2.2733942E-18
   15.98000        2.2733928E-18
   16.17000        2.2733940E-18
   16.36000        2.2733971E-18
   16.55000        2.2734015E-18
   16.74000        2.2734056E-18
   16.93000        2.2734087E-18
   17.12000        2.2734108E-18
   17.31000        2.2734120E-18
   17.50000        2.2734137E-18
   17.69000        2.2734158E-18
   17.88000        2.2734197E-18
   18.07000        2.2734248E-18
   18.26000        2.2734308E-18
   18.45000        2.2734362E-18
   18.64000        2.2734393E-18
   18.83000        2.2734404E-18
   19.02000        2.2734379E-18
   19.21000        2.2734329E-18
   19.40000        2.2734271E-18
   19.59000        2.2734215E-18
   19.78000        2.2734184E-18
   19.97000        2.2734176E-18
   20.16000        2.2734189E-18
   20.35000        2.2734201E-18
   20.54000        2.2734195E-18
   20.73000        2.2734155E-18
   20.92000        2.2734083E-18
   21.11000        2.2733992E-18
   21.30000        2.2733909E-18
   21.49000        2.2733856E-18
   21.68000        2.2733851E-18
   21.87000        2.2733895E-18
   22.06000        2.2733980E-18
   22.25000        2.2734081E-18
   22.44000        2.2734172E-18
   22.63000        2.2734230E-18
   22.82000        2.2734259E-18
   23.01000        2.2734259E-18
   23.20000        2.2734240E-18
   23.39000        2.2734226E-18
   23.58000        2.2734230E-18
   23.77000        2.2734253E-18
   23.96000        2.2734290E-18
   24.15000        2.2734333E-18
   24.34000        2.2734368E-18
   24.53000        2.2734383E-18
   24.72000        2.2734356E-18
   24.91000        2.2734298E-18
   25.10000        2.2734213E-18
   25.29000        2.2734120E-18
   25.48000        2.2734044E-18
   25.67000        2.2734009E-18
   25.86000        2.2734019E-18
   26.05000        2.2734071E-18
   26.24000        2.2734137E-18
   26.43000        2.2734189E-18
   26.62000        2.2734211E-18
   26.81000        2.2734189E-18
   27.00000        2.2734116E-18
   27.19000        2.2734019E-18
   27.38000        2.2733926E-18
   27.57000        2.2733866E-18
   27.76000        2.2733854E-18
   27.95000        2.2733891E-18
   28.14000        2.2733961E-18
   28.33000        2.2734048E-18
   28.52000        2.2734118E-18
   28.71000        2.2734168E-18
   28.90000        2.2734182E-18
   29.09000        2.2734182E-18
   29.28000        2.2734186E-18
   29.47000        2.2734211E-18
   29.66000        2.2734251E-18
   29.85000        2.2734308E-18
   30.04000        2.2734362E-18
   30.23000        2.2734397E-18
   30.42000        2.2734389E-18
   30.61000        2.2734337E-18
   30.80000        2.2734244E-18
   30.99000        2.2734122E-18
   31.18000        2.2733996E-18
   31.37000        2.2733895E-18
   31.56000        2.2733845E-18
   31.75000        2.2733851E-18
   31.94000        2.2733899E-18
   32.13000        2.2733986E-18
   32.32000        2.2734081E-18
   32.51000        2.2734166E-18
   32.70000        2.2734222E-18
   32.89000        2.2734240E-18
   33.08000        2.2734238E-18
   33.27000        2.2734217E-18
   33.46000        2.2734213E-18
   33.65000        2.2734222E-18
   33.84000        2.2734257E-18
   34.03000        2.2734300E-18
   34.22000        2.2734337E-18
   34.41000        2.2734352E-18
   34.60000        2.2734346E-18
   34.79000        2.2734304E-18
   34.98000        2.2734242E-18
   35.17000        2.2734180E-18
   35.36000        2.2734137E-18
   35.55000        2.2734129E-18
   35.74000        2.2734160E-18
   35.93000        2.2734209E-18
   36.12000        2.2734261E-18
   36.31000        2.2734292E-18
   36.50000        2.2734290E-18
   36.69000        2.2734244E-18
   36.88000        2.2734174E-18
   37.07000        2.2734102E-18
   37.26000        2.2734052E-18
   37.45000        2.2734038E-18
   37.64000        2.2734052E-18
   37.83000        2.2734093E-18
   38.02000        2.2734145E-18
   38.21000        2.2734180E-18
   38.40000        2.2734191E-18
   38.59000        2.2734170E-18
   38.78000        2.2734126E-18
   38.97000        2.2734075E-18
   39.16000        2.2734025E-18
   39.35000        2.2733990E-18
   39.54000        2.2733990E-18
   39.73000        2.2734021E-18
   39.92000        2.2734077E-18
   40.11000        2.2734147E-18
   40.30000        2.2734220E-18
   40.49000        2.2734273E-18
   40.68000        2.2734300E-18
   40.87000        2.2734298E-18
   41.06000        2.2734277E-18
   41.25000        2.2734251E-18
   41.44000        2.2734232E-18
   41.63000        2.2734236E-18
   41.82000        2.2734253E-18
   42.01000        2.2734271E-18
   42.20000        2.2734282E-18
   42.39000        2.2734265E-18
   42.58000        2.2734222E-18
   42.77000        2.2734155E-18
   42.96000        2.2734085E-18
   43.15000        2.2734025E-18
   43.34000        2.2733988E-18
   43.53000        2.2733973E-18
   43.72000        2.2733982E-18
   43.91000        2.2733986E-18
   44.10000        2.2733980E-18
   44.29000        2.2733949E-18
   44.48000        2.2733911E-18
   44.67000        2.2733872E-18
   44.86000        2.2733851E-18
   45.05000        2.2733878E-18
   45.24000        2.2733961E-18
   45.43000        2.2734104E-18
   45.62000        2.2734300E-18
   45.81000        2.2734532E-18
   46.00000        2.2734784E-18
   46.19000        2.2735028E-18
   46.38000        2.2735258E-18
   46.57000        2.2735471E-18
   46.76000        2.2735657E-18
   46.95000        2.2735812E-18
   47.14000        2.2735919E-18
   47.33000        2.2735950E-18
   47.52000        2.2735876E-18
   47.71000        2.2735667E-18
   47.90000        2.2735305E-18
   48.09000        2.2734765E-18
   48.28000        2.2734038E-18
   48.47000        2.2733117E-18
   48.66000        2.2732015E-18
   48.85000        2.2730756E-18
   49.04000        2.2729381E-18
   49.23000        2.2727962E-18
   49.42000        2.2726581E-18
   49.61000        2.2725319E-18
   49.80000        2.2724266E-18
   49.99000        2.2723512E-18
   50.18000        2.2723137E-18
   50.37000        2.2723235E-18
   50.56000        2.2723896E-18
   50.75000        2.2725226E-18
   50.94000        2.2727317E-18
   51.13000        2.2730235E-18
   51.32000        2.2734019E-18
   51.51000        2.2738645E-18
   51.70000        2.2744032E-18
   51.89000        2.2750046E-18
   52.08000        2.2756487E-18
   52.27000        2.2763121E-18
   52.46000        2.2769677E-18
   52.65000        2.2775841E-18
   52.84000        2.2781261E-18
   53.03000        2.2785544E-18
   53.22000        2.2788284E-18
   53.41000        2.2789068E-18
   53.60000        2.2787471E-18
   53.79000        2.2783114E-18
   53.98000        2.2775676E-18
   54.17000        2.2764912E-18
   54.36000        2.2750674E-18
   54.55000        2.2732954E-18
   54.74000        2.2711910E-18
   54.93000        2.2687889E-18
   55.12000        2.2661448E-18
   55.31000        2.2633359E-18
   55.50000        2.2604611E-18
   55.69000        2.2576389E-18
   55.88000        2.2550081E-18
   56.07000        2.2527205E-18
   56.26000        2.2509386E-18
   56.45000        2.2498268E-18
   56.64000        2.2495479E-18
   56.83000        2.2502541E-18
   57.02000        2.2520778E-18
   57.21000        2.2551245E-18
   57.40000        2.2594622E-18
   57.59000        2.2651156E-18
   57.78000        2.2720530E-18
   57.97000        2.2801856E-18
   58.16000        2.2893590E-18
   58.35000        2.2993543E-18
   58.54000        2.3098849E-18
   58.73000        2.3206045E-18
   58.92000        2.3311091E-18
   59.11000        2.3409466E-18
   59.30000        2.3496262E-18
   59.49000        2.3566340E-18
   59.68000        2.3614472E-18
   59.87000        2.3635553E-18
   60.06000        2.3624791E-18
   60.25000        2.3577946E-18
   60.44000        2.3491578E-18
   60.63000        2.3363266E-18
   60.82000        2.3191865E-18
   61.01000        2.2977692E-18
   61.20000        2.2722701E-18
   61.39000        2.2430671E-18
   61.58000        2.2107272E-18
   61.77000        2.1760119E-18
   61.96000        2.1398741E-18
   62.15000        2.1034469E-18
   62.34000        2.0680256E-18
   62.53000        2.0350388E-18
   62.72000        2.0060137E-18
   62.91000        1.9825354E-18
   63.10000        1.9661953E-18
   63.29000        1.9585362E-18
   63.48000        1.9609931E-18
   63.67000        1.9748263E-18
   63.86000        2.0010554E-18
   64.05000        2.0403944E-18
   64.24000        2.0931890E-18
   64.43000        2.1593589E-18
   64.62000        2.2383518E-18
   64.81000        2.3291061E-18
   65.00000        2.4300292E-18
   65.19000        2.5389887E-18
   65.38000        2.6533222E-18
   65.57000        2.7698654E-18
   65.76000        2.8850004E-18
   65.95000        2.9947266E-18
   66.14000        3.0947480E-18
   66.33000        3.1805862E-18
   66.52000        3.2477042E-18
   66.71000        3.2916470E-18
   66.90000        3.3081900E-18
   67.09000        3.2934934E-18
   67.28000        3.2442621E-18
   67.47000        3.1579010E-18
   67.66000        3.0326633E-18
   67.85000        2.8677959E-18
   68.04000        2.6636665E-18
   68.23000        2.4218750E-18
   68.42000        2.1453459E-18
   68.61000        1.8383953E-18
   68.80000        1.5067699E-18
   68.99000        1.1576552E-18
   69.18000        7.9964320E-19
   69.37000        4.4266002E-19
   69.56000        9.7844907E-20
   69.75000       -2.2262806E-19
   69.94000       -5.0578088E-19
   70.13000       -7.3812955E-19
   70.32000       -9.0604391E-19
   70.51000       -9.9617185E-19
   70.70000       -9.9591998E-19
   70.89000       -8.9398579E-19
   71.08000       -6.8092882E-19
   71.27000       -3.4976340E-19
   71.46000        1.0346243E-19
   71.65000        6.7911115E-19
   71.84000        1.3734666E-18
   72.03000        2.1783437E-18
   72.22000        3.0808212E-18
   72.41000        4.0631310E-18
   72.60000        5.1027233E-18
   72.79000        6.1725326E-18
   72.98000        7.2414418E-18
   73.17000        8.2749552E-18
   73.36000        9.2360688E-18
   73.55000        1.0086323E-17
   73.74000        1.0787003E-17
   73.93000        1.1300469E-17
   74.12000        1.1591553E-17
   74.31000        1.1628989E-17
   74.50000        1.1386821E-17
   74.69000        1.0845732E-17
   74.88000        9.9942418E-18
   75.07000        8.8297295E-18
   75.26000        7.3592307E-18
   75.45000        5.5999693E-18
   75.64000        3.5795931E-18
   75.83000        1.3361001E-18
   76.02000       -1.0825835E-18
   76.21000       -3.6193503E-18
   76.40000       -6.2090046E-18
   76.59000       -8.7796801E-18
   76.78000       -1.1254549E-17
   76.97000       -1.3553812E-17
   77.16000       -1.5596894E-17
   77.35000       -1.7304833E-17
   77.54000       -1.8602764E-17
   77.73000       -1.9422447E-17
   77.92000       -1.9704782E-17
   78.11000       -1.9402188E-17
   78.30000       -1.8480818E-17
   78.49000       -1.6922487E-17
   78.68000       -1.4726240E-17
   78.87000       -1.1909488E-17
   79.06000       -8.5086379E-18
   79.25000       -4.5791399E-18
   79.44000       -1.9492585E-19
   79.63000        4.5528000E-18
   79.82000        9.5574069E-18
   80.01000        1.4699304E-17
   80.20000        1.9848945E-17
   80.39000        2.4870290E-17
   80.58000        2.9624610E-17
   80.77000        3.3974468E-17
   80.96000        3.7787751E-17
   81.15000        4.0941549E-17
   81.34000        4.3325768E-17
   81.53000        4.4846295E-17
   81.72000        4.5427601E-17
   81.91000        4.5014759E-17
   82.10000        4.3574717E-17
   82.29000        4.1096930E-17
   82.48000        3.7593357E-17
   82.67000        3.3097872E-17
   82.86000        2.7665307E-17
   83.05000        2.1370122E-17
   83.24000        1.4305003E-17
   83.43000        6.5794186E-18
   83.62000       -1.6817229E-18
   83.81000       -1.0339241E-17
   84.00000       -1.9240669E-17
   84.19000       -2.8221119E-17
   84.38000       -3.7104113E-17
   84.57000       -4.5702477E-17
   84.76000       -5.3819567E-17
   84.95000       -6.1251004E-17
   85.14000       -6.7787041E-17
   85.33000       -7.3215940E-17
   85.52000       -7.7328212E-17
   85.71000       -7.9922118E-17
   85.90000       -8.0810086E-17
   86.09000       -7.9826192E-17
   86.28000       -7.6834279E-17
   86.47000       -7.1736484E-17
   86.66000       -6.4481674E-17
   86.85000       -5.5073334E-17
   87.04000       -4.3576381E-17
   87.23000       -3.0122282E-17
   87.42000       -1.4912113E-17
   87.61000        1.7829305E-18
   87.80000        1.9623833E-17
   87.99000        3.8208961E-17
   88.18000        5.7082285E-17
   88.37000        7.5744227E-17
   88.56000        9.3665069E-17
   88.75000        1.1030022E-16
   88.94000        1.2510698E-16
   89.13000        1.3756199E-16
   89.32000        1.4717896E-16
   89.51000        1.5352583E-16
   89.70000        1.5624081E-16
   89.89000        1.5504680E-16
   90.08000        1.4976388E-16
   90.27000        1.4031917E-16
   90.46000        1.2675425E-16
   90.65000        1.0922969E-16
   90.84000        8.8026774E-17
   91.03000        6.3546093E-17
   91.22000        3.6303127E-17
   91.41000        6.9206930E-18
   91.60000       -2.3881938E-17
   91.79000       -5.5303281E-17
   91.98000       -8.6477286E-17
   92.17000       -1.1649451E-16
   92.36000       -1.4442649E-16
   92.55000       -1.6935323E-16
   92.74000       -1.9039321E-16
   92.93000       -2.0673511E-16
   93.12000       -2.1767030E-16
   93.31000       -2.2262506E-16
   93.50000       -2.2119077E-16
   93.69000       -2.1315040E-16
   93.88000       -1.9850012E-16
   94.07000       -1.7746371E-16
   94.26000       -1.5049863E-16
   94.45000       -1.1829233E-16
   94.64000       -8.1748281E-17
   94.83000       -4.1961000E-17
   95.02000       -1.8099892E-19
   95.21000        4.2229853E-17
   95.40000        8.3850419E-17
   95.59000        1.2325777E-16
   95.78000        1.5908700E-16
   95.97000        1.9009045E-16
   96.16000        2.1519278E-16
   96.35000        2.3353900E-16
   96.54000        2.4453209E-16
   96.73000        2.4785862E-16
   96.92000        2.4350019E-16
   97.11000        2.3172976E-16
   97.30000        2.1309398E-16
   97.49000        1.8838152E-16
   97.68000        1.5858024E-16
   97.87000        1.2482552E-16
   98.06000        8.8343207E-17
   98.25000        5.0390887E-17
   98.44000        1.2201055E-17
   98.63000       -2.5070370E-17
   98.82000       -6.0387123E-17
   99.01000       -9.2865231E-17
   99.20000       -1.2179385E-16
   99.39000       -1.4664373E-16
   99.58000       -1.6706429E-16
   99.77000       -1.8287019E-16
   99.96000       -1.9401994E-16
   100.1500       -2.0058884E-16
   100.3400       -2.0273944E-16
   100.5300       -2.0069176E-16
   100.7200       -1.9469624E-16
   100.9100       -1.8501161E-16
   101.1000       -1.7188912E-16
   101.2900       -1.5556385E-16
   101.4800       -1.3625342E-16
   101.6700       -1.1416341E-16
   101.8600       -8.9498050E-17
   102.0500       -6.2474894E-17
   102.2400       -3.3341013E-17
   102.4300       -2.3890808E-18
   102.6200        3.0028837E-17
   102.8100        6.3491128E-17
   103.0000        9.7501460E-17
   103.1900        1.3148866E-16
   103.3800        1.6481226E-16
   103.5700        1.9677252E-16
   103.7600        2.2662470E-16
   103.9500        2.5359608E-16
   104.1400        2.7690447E-16
   104.3300        2.9577755E-16
   104.5200        3.0947196E-16
   104.7100        3.1729142E-16
   104.9000        3.1860408E-16
   105.0900        3.1285916E-16
   105.2800        2.9960302E-16
   105.4700        2.7849655E-16
   105.6600        2.4933328E-16
   105.8500        2.1206035E-16
   106.0400        1.6680170E-16
   106.2300        1.1388351E-16
   106.4200        5.3861253E-17
   106.6100       -1.2453743E-17
   106.8000       -8.3970916E-17
   106.9900       -1.5930327E-16
   107.1800       -2.3676043E-16
   107.3700       -3.1435547E-16
   107.5600       -3.8982958E-16
   107.7500       -4.6069651E-16
   107.9400       -5.2430948E-16
   108.1300       -5.7794990E-16
   108.3200       -6.1893624E-16
   108.5100       -6.4474983E-16
   108.7000       -6.5317199E-16
   108.8900       -6.4242446E-16
   109.0800       -6.1130574E-16
   109.2700       -5.5931301E-16
   109.4600       -4.8674007E-16
   109.6500       -3.9474292E-16
   109.8400       -2.8536360E-16
   110.0300       -1.6150876E-16
   110.2200       -2.6877849E-17
   110.4100        1.1415717E-16
   110.6000        2.5671843E-16
   110.7900        3.9562627E-16
   110.9800        5.2563244E-16
   111.1700        6.4166833E-16
   111.3600        7.3909437E-16
   111.5500        8.1393603E-16
   111.7400        8.6309015E-16
   111.9300        8.8449023E-16
   112.1200        8.7721834E-16
   112.3100        8.4155667E-16
   112.5000        7.7897496E-16
   112.6900        6.9205408E-16
   112.8800        5.8435072E-16
   113.0700        4.6021201E-16
   113.2600        3.2455184E-16
   113.4500        1.8260418E-16
   113.6400        3.9668495E-17
   113.8300       -9.9135988E-17
   114.0200       -2.2909250E-16
   114.2100       -3.4607294E-16
   114.4000       -4.4667843E-16
   114.5900       -5.2832912E-16
   114.7800       -5.8930189E-16
   114.9700       -6.2871873E-16
   115.1600       -6.4649223E-16
   115.3500       -6.4323873E-16
   115.5400       -6.2016878E-16
   115.7300       -5.7896883E-16
   115.9200       -5.2168500E-16
   116.1100       -4.5061946E-16
   116.3000       -3.6824662E-16
   116.4900       -2.7715434E-16
   116.6800       -1.8000979E-16
   116.8700       -7.9547584E-17
   117.0600        2.1426087E-17
   117.2500        1.2002261E-16
   117.4400        2.1326302E-16
   117.6300        2.9808355E-16
   117.8200        3.7136370E-16
   118.0100        4.2998383E-16
   118.2000        4.7091517E-16
   118.3900        4.9134195E-16
   118.5800        4.8881128E-16
   118.7700        4.6140092E-16
   118.9600        4.0789462E-16
   119.1500        3.2794948E-16
   119.3400        2.2224114E-16
   119.5300        9.2573548E-17
   119.7200       -5.8061746E-17
   119.9100       -2.2548290E-16
   120.1000       -4.0437851E-16
   120.2900       -5.8843241E-16
   120.4800       -7.7050754E-16
   120.6700       -9.4288161E-16
   120.8600       -1.0975214E-15
   121.0500       -1.2263834E-15
   121.2400       -1.3217236E-15
   121.4300       -1.3764036E-15
   121.6200       -1.3841763E-15
   121.8100       -1.3399447E-15
   122.0000       -1.2399805E-15
   122.1900       -1.0821039E-15
   122.3800       -8.6581770E-16
   122.5700       -5.9240251E-16
   122.7600       -2.6497157E-16
   122.9500        1.1150961E-16
   123.1400        5.3023458E-16
   123.3300        9.8259941E-16
   123.5200        1.4582771E-15
   123.7100        1.9453295E-15
   123.9000        2.4303582E-15
   124.0900        2.8987051E-15
   124.2800        3.3347122E-15
   124.4700        3.7220428E-15
   124.6600        4.0440762E-15
   124.8500        4.2843744E-15
   125.0400        4.4272146E-15
   125.2300        4.4581860E-15
   125.4200        4.3648230E-15
   125.6100        4.1372617E-15
   125.8000        3.7688811E-15
   125.9900        3.2568989E-15
   126.1800        2.6028863E-15
   126.3700        1.8131545E-15
   126.5600        8.9898836E-16
   126.7500       -1.2330505E-16
   126.9400       -1.2325579E-15
   127.1300       -2.4031157E-15
   127.3200       -3.6054250E-15
   127.5100       -4.8068213E-15
   127.7000       -5.9724831E-15
   127.8900       -7.0665202E-15
   128.0800       -8.0531454E-15
   128.2700       -8.8978787E-15
   128.4600       -9.5687347E-15
   128.6500       -1.0037334E-14
   128.8400       -1.0279898E-14
   129.0300       -1.0278093E-14
   129.2200       -1.0019695E-14
   129.4100       -9.4990468E-15
   129.6000       -8.7173277E-15
   129.7900       -7.6826278E-15
   129.9800       -6.4098346E-15
   130.1700       -4.9203653E-15
   130.3600       -3.2417584E-15
   130.5500       -1.4071423E-15
   130.7400        5.4539530E-16
   130.9300        2.5735317E-15
   131.1200        4.6315181E-15
   131.3100        6.6710731E-15
   131.5000        8.6423602E-15
   131.6900        1.0495062E-14
   131.8800        1.2179535E-14
   132.0700        1.3648056E-14
   132.2600        1.4856141E-14
   132.4500        1.5763912E-14
   132.6400        1.6337470E-14
   132.8300        1.6550238E-14
   133.0200        1.6384207E-14
   133.2100        1.5831009E-14
   133.4000        1.4892757E-14
   133.5900        1.3582588E-14
   133.7800        1.1924839E-14
   133.9700        9.9547954E-15
   134.1600        7.7180194E-15
   134.3500        5.2692179E-15
   134.5400        2.6706923E-15
   134.7300       -9.5841067E-18
   134.9200       -2.7001945E-15
   135.1100       -5.3287071E-15
   135.3000       -7.8241992E-15
   135.4900       -1.0119747E-14
   135.6800       -1.2154774E-14
   135.8700       -1.3877123E-14
   136.0600       -1.5244777E-14
   136.2500       -1.6227135E-14
   136.4400       -1.6805803E-14
   136.6300       -1.6974877E-14
   136.8200       -1.6740739E-14
   137.0100       -1.6121387E-14
   137.2000       -1.5145390E-14
   137.3900       -1.3850530E-14
   137.5800       -1.2282217E-14
   137.7700       -1.0491792E-14
   137.9600       -8.5347828E-15
   138.1500       -6.4691942E-15
   138.3400       -4.3538870E-15
   138.5300       -2.2470746E-15
   138.7200       -2.0496166E-16
   138.9100        1.7194847E-15
   139.1000        3.4776483E-15
   139.2900        5.0262728E-15
   139.4800        6.3283979E-15
   139.6700        7.3542297E-15
   139.8600        8.0819462E-15
   140.0500        8.4984323E-15
   140.2400        8.5998908E-15
   140.4300        8.3923042E-15
   140.6200        7.8916688E-15
   140.8100        7.1239410E-15
   141.0000        6.1246352E-15
   141.1900        4.9380098E-15
   141.3800        3.6158278E-15
   141.5700        2.2156669E-15
   141.7600        7.9882894E-16
   141.9500       -5.7209606E-16
   142.1400       -1.8359018E-15
   142.3300       -2.9355392E-15
   142.5200       -3.8208339E-15