  -30.00000       -2.9414840E-18
  -29.81000       -2.9414840E-18
  -29.62000       -2.9414840E-18
  -29.43000       -2.9414840E-18
  -29.24000       -2.9414845E-18
  -29.05000       -2.9414847E-18
  -28.86000       -2.9414847E-18
  -28.67000       -2.9414845E-18
  -28.48000       -2.9414845E-18
  -28.29000       -2.9414842E-18
  -28.10000       -2.9414836E-18
  -27.91000       -2.9414834E-18
  -27.72000       -2.9414830E-18
  -27.53000       -2.9414832E-18
  -27.34000       -2.9414838E-18
  -27.15000       -2.9414840E-18
  -26.96000       -2.9414845E-18
  -26.77000       -2.9414849E-18
  -26.58000       -2.9414849E-18
  -26.39000       -2.9414845E-18
  -26.20000       -2.9414842E-18
  -26.01000       -2.9414842E-18
  -25.82000       -2.9414842E-18
  -25.63000       -2.9414838E-18
  -25.44000       -2.9414838E-18
  -25.25000       -2.9414838E-18
  -25.06000       -2.9414836E-18
  -24.87000       -2.9414832E-18
  -24.68000       -2.9414834E-18
  -24.49000       -2.9414836E-18
  -24.30000       -2.9414838E-18
  -24.11000       -2.9414849E-18
  -23.92000       -2.9414857E-18
  -23.73000       -2.9414867E-18
  -23.54000       -2.9414863E-18
  -23.35000       -2.9414859E-18
  -23.16000       -2.9414842E-18
  -22.97000       -2.9414826E-18
  -22.78000       -2.9414813E-18
  -22.59000       -2.9414813E-18
  -22.40000       -2.9414824E-18
  -22.21000       -2.9414842E-18
  -22.02000       -2.9414859E-18
  -21.83000       -2.9414861E-18
  -21.64000       -2.9414859E-18
  -21.45000       -2.9414853E-18
  -21.26000       -2.9414845E-18
  -21.07000       -2.9414834E-18
  -20.88000       -2.9414830E-18
  -20.69000       -2.9414836E-18
  -20.50000       -2.9414851E-18
  -20.31000       -2.9414865E-18
  -20.12000       -2.9414876E-18
  -19.93000       -2.9414869E-18
  -19.74000       -2.9414855E-18
  -19.55000       -2.9414845E-18
  -19.36000       -2.9414838E-18
  -19.17000       -2.9414838E-18
  -18.98000       -2.9414849E-18
  -18.79000       -2.9414855E-18
  -18.60000       -2.9414861E-18
  -18.41000       -2.9414859E-18
  -18.22000       -2.9414845E-18
  -18.03000       -2.9414834E-18
  -17.84000       -2.9414828E-18
  -17.65000       -2.9414834E-18
  -17.46000       -2.9414847E-18
  -17.27000       -2.9414861E-18
  -17.08000       -2.9414861E-18
  -16.89000       -2.9414842E-18
  -16.70000       -2.9414822E-18
  -16.51000       -2.9414805E-18
  -16.32000       -2.9414791E-18
  -16.13000       -2.9414791E-18
  -15.94000       -2.9414801E-18
  -15.75000       -2.9414822E-18
  -15.56000       -2.9414836E-18
  -15.37000       -2.9414847E-18
  -15.18000       -2.9414845E-18
  -14.99000       -2.9414836E-18
  -14.80000       -2.9414830E-18
  -14.61000       -2.9414830E-18
  -14.42000       -2.9414842E-18
  -14.23000       -2.9414861E-18
  -14.04000       -2.9414873E-18
  -13.85000       -2.9414880E-18
  -13.66000       -2.9414873E-18
  -13.47000       -2.9414859E-18
  -13.28000       -2.9414836E-18
  -13.09000       -2.9414818E-18
  -12.90000       -2.9414807E-18
  -12.71000       -2.9414809E-18
  -12.52000       -2.9414828E-18
  -12.33000       -2.9414853E-18
  -12.14000       -2.9414871E-18
  -11.95000       -2.9414882E-18
  -11.76000       -2.9414876E-18
  -11.57000       -2.9414857E-18
  -11.38000       -2.9414834E-18
  -11.19000       -2.9414809E-18
  -11.00000       -2.9414795E-18
  -10.81000       -2.9414797E-18
  -10.62000       -2.9414805E-18
  -10.43000       -2.9414811E-18
  -10.24000       -2.9414822E-18
  -10.05000       -2.9414830E-18
  -9.860000       -2.9414836E-18
  -9.670000       -2.9414845E-18
  -9.480000       -2.9414853E-18
  -9.290000       -2.9414865E-18
  -9.100000       -2.9414880E-18
  -8.910000       -2.9414880E-18
  -8.720000       -2.9414873E-18
  -8.530000       -2.9414861E-18
  -8.340000       -2.9414845E-18
  -8.150000       -2.9414832E-18
  -7.960000       -2.9414824E-18
  -7.770000       -2.9414822E-18
  -7.580000       -2.9414820E-18
  -7.390000       -2.9414824E-18
  -7.200000       -2.9414828E-18
  -7.010000       -2.9414826E-18
  -6.820000       -2.9414824E-18
  -6.630000       -2.9414826E-18
  -6.440000       -2.9414826E-18
  -6.250000       -2.9414834E-18
  -6.060000       -2.9414855E-18
  -5.870000       -2.9414880E-18
  -5.680000       -2.9414888E-18
  -5.490000       -2.9414880E-18
  -5.300000       -2.9414851E-18
  -5.110000       -2.9414809E-18
  -4.920000       -2.9414776E-18
  -4.730000       -2.9414764E-18
  -4.540000       -2.9414782E-18
  -4.350000       -2.9414820E-18
  -4.160000       -2.9414863E-18
  -3.970000       -2.9414896E-18
  -3.780000       -2.9414911E-18
  -3.590000       -2.9414902E-18
  -3.400000       -2.9414882E-18
  -3.210000       -2.9414867E-18
  -3.020000       -2.9414861E-18
  -2.830000       -2.9414876E-18
  -2.640000       -2.9414898E-18
  -2.450000       -2.9414921E-18
  -2.260000       -2.9414929E-18
  -2.070000       -2.9414919E-18
  -1.880000       -2.9414888E-18
  -1.690000       -2.9414842E-18
  -1.500000       -2.9414803E-18
  -1.310000       -2.9414787E-18
  -1.120000       -2.9414791E-18
 -0.9300000       -2.9414811E-18
 -0.7400000       -2.9414838E-18
 -0.5500000       -2.9414865E-18
 -0.3600000       -2.9414884E-18
 -0.1700000       -2.9414896E-18
  2.0000000E-02   -2.9414890E-18
  0.2100000       -2.9414878E-18
  0.4000000       -2.9414865E-18
  0.5900000       -2.9414847E-18
  0.7800000       -2.9414832E-18
  0.9700000       -2.9414816E-18
   1.160000       -2.9414803E-18
   1.350000       -2.9414791E-18
   1.540000       -2.9414782E-18
   1.730000       -2.9414791E-18
   1.920000       -2.9414813E-18
   2.110000       -2.9414847E-18
   2.300000       -2.9414876E-18
   2.490000       -2.9414896E-18
   2.680000       -2.9414907E-18
   2.870000       -2.9414902E-18
   3.060000       -2.9414886E-18
   3.250000       -2.9414867E-18
   3.440000       -2.9414847E-18
   3.630000       -2.9414834E-18
   3.820000       -2.9414818E-18
   4.010000       -2.9414803E-18
   4.200000       -2.9414785E-18
   4.390000       -2.9414758E-18
   4.580000       -2.9414733E-18
   4.770000       -2.9414714E-18
   4.960000       -2.9414720E-18
   5.150000       -2.9414758E-18
   5.340000       -2.9414824E-18
   5.530000       -2.9414904E-18
   5.720000       -2.9414975E-18
   5.910000       -2.9415018E-18
   6.100000       -2.9415029E-18
   6.290000       -2.9415000E-18
   6.480000       -2.9414952E-18
   6.670000       -2.9414890E-18
   6.860000       -2.9414836E-18
   7.050000       -2.9414795E-18
   7.240000       -2.9414760E-18
   7.430000       -2.9414733E-18
   7.620000       -2.9414710E-18
   7.810000       -2.9414681E-18
   8.000000       -2.9414660E-18
   8.190000       -2.9414660E-18
   8.380000       -2.9414691E-18
   8.570000       -2.9414751E-18
   8.760000       -2.9414826E-18
   8.950000       -2.9414898E-18
   9.140000       -2.9414952E-18
   9.330000       -2.9414985E-18
   9.520000       -2.9414985E-18
   9.710000       -2.9414969E-18
   9.900000       -2.9414933E-18
   10.09000       -2.9414900E-18
   10.28000       -2.9414867E-18
   10.47000       -2.9414840E-18
   10.66000       -2.9414807E-18
   10.85000       -2.9414770E-18
   11.04000       -2.9414735E-18
   11.23000       -2.9414718E-18
   11.42000       -2.9414725E-18
   11.61000       -2.9414764E-18
   11.80000       -2.9414818E-18
   11.99000       -2.9414871E-18
   12.18000       -2.9414907E-18
   12.37000       -2.9414915E-18
   12.56000       -2.9414898E-18
   12.75000       -2.9414861E-18
   12.94000       -2.9414830E-18
   13.13000       -2.9414822E-18
   13.32000       -2.9414828E-18
   13.51000       -2.9414849E-18
   13.70000       -2.9414859E-18
   13.89000       -2.9414853E-18
   14.08000       -2.9414824E-18
   14.27000       -2.9414780E-18
   14.46000       -2.9414747E-18
   14.65000       -2.9414741E-18
   14.84000       -2.9414776E-18
   15.03000       -2.9414836E-18
   15.22000       -2.9414902E-18
   15.41000       -2.9414952E-18
   15.60000       -2.9414956E-18
   15.79000       -2.9414925E-18
   15.98000       -2.9414871E-18
   16.17000       -2.9414822E-18
   16.36000       -2.9414795E-18
   16.55000       -2.9414791E-18
   16.74000       -2.9414801E-18
   16.93000       -2.9414820E-18
   17.12000       -2.9414832E-18
   17.31000       -2.9414824E-18
   17.50000       -2.9414807E-18
   17.69000       -2.9414803E-18
   17.88000       -2.9414813E-18
   18.07000       -2.9414842E-18
   18.26000       -2.9414882E-18
   18.45000       -2.9414919E-18
   18.64000       -2.9414940E-18
   18.83000       -2.9414931E-18
   19.02000       -2.9414902E-18
   19.21000       -2.9414869E-18
   19.40000       -2.9414842E-18
   19.59000       -2.9414824E-18
   19.78000       -2.9414816E-18
   19.97000       -2.9414811E-18
   20.16000       -2.9414803E-18
   20.35000       -2.9414780E-18
   20.54000       -2.9414751E-18
   20.73000       -2.9414729E-18
   20.92000       -2.9414722E-18
   21.11000       -2.9414745E-18
   21.30000       -2.9414785E-18
   21.49000       -2.9414830E-18
   21.68000       -2.9414861E-18
   21.87000       -2.9414867E-18
   22.06000       -2.9414857E-18
   22.25000       -2.9414840E-18
   22.44000       -2.9414836E-18
   22.63000       -2.9414863E-18
   22.82000       -2.9414921E-18
   23.01000       -2.9414983E-18
   23.20000       -2.9415029E-18
   23.39000       -2.9415031E-18
   23.58000       -2.9414989E-18
   23.77000       -2.9414919E-18
   23.96000       -2.9414834E-18
   24.15000       -2.9414772E-18
   24.34000       -2.9414762E-18
   24.53000       -2.9414793E-18
   24.72000       -2.9414845E-18
   24.91000       -2.9414898E-18
   25.10000       -2.9414929E-18
   25.29000       -2.9414925E-18
   25.48000       -2.9414894E-18
   25.67000       -2.9414842E-18
   25.86000       -2.9414797E-18
   26.05000       -2.9414766E-18
   26.24000       -2.9414754E-18
   26.43000       -2.9414745E-18
   26.62000       -2.9414745E-18
   26.81000       -2.9414745E-18
   27.00000       -2.9414739E-18
   27.19000       -2.9414733E-18
   27.38000       -2.9414739E-18
   27.57000       -2.9414762E-18
   27.76000       -2.9414793E-18
   27.95000       -2.9414830E-18
   28.14000       -2.9414863E-18
   28.33000       -2.9414886E-18
   28.52000       -2.9414890E-18
   28.71000       -2.9414884E-18
   28.90000       -2.9414867E-18
   29.09000       -2.9414838E-18
   29.28000       -2.9414807E-18
   29.47000       -2.9414774E-18
   29.66000       -2.9414749E-18
   29.85000       -2.9414729E-18
   30.04000       -2.9414718E-18
   30.23000       -2.9414720E-18
   30.42000       -2.9414737E-18
   30.61000       -2.9414770E-18
   30.80000       -2.9414820E-18
   30.99000       -2.9414886E-18
   31.18000       -2.9414942E-18
   31.37000       -2.9414987E-18
   31.56000       -2.9415006E-18
   31.75000       -2.9414998E-18
   31.94000       -2.9414969E-18
   32.13000       -2.9414938E-18
   32.32000       -2.9414907E-18
   32.51000       -2.9414892E-18
   32.70000       -2.9414896E-18
   32.89000       -2.9414904E-18
   33.08000       -2.9414904E-18
   33.27000       -2.9414892E-18
   33.46000       -2.9414865E-18
   33.65000       -2.9414847E-18
   33.84000       -2.9414836E-18
   34.03000       -2.9414845E-18
   34.22000       -2.9414871E-18
   34.41000       -2.9414913E-18
   34.60000       -2.9414946E-18
   34.79000       -2.9414964E-18
   34.98000       -2.9414956E-18
   35.17000       -2.9414925E-18
   35.36000       -2.9414886E-18
   35.55000       -2.9414855E-18
   35.74000       -2.9414842E-18
   35.93000       -2.9414849E-18
   36.12000       -2.9414857E-18
   36.31000       -2.9414863E-18
   36.50000       -2.9414859E-18
   36.69000       -2.9414838E-18
   36.88000       -2.9414803E-18
   37.07000       -2.9414768E-18
   37.26000       -2.9414749E-18
   37.45000       -2.9414749E-18
   37.64000       -2.9414762E-18
   37.83000       -2.9414768E-18
   38.02000       -2.9414774E-18
   38.21000       -2.9414772E-18
   38.40000       -2.9414764E-18
   38.59000       -2.9414758E-18
   38.78000       -2.9414766E-18
   38.97000       -2.9414785E-18
   39.16000       -2.9414805E-18
   39.35000       -2.9414813E-18
   39.54000       -2.9414799E-18
   39.73000       -2.9414758E-18
   39.92000       -2.9414698E-18
   40.11000       -2.9414650E-18
   40.30000       -2.9414632E-18
   40.49000       -2.9414660E-18
   40.68000       -2.9414729E-18
   40.87000       -2.9414824E-18
   41.06000       -2.9414919E-18
   41.25000       -2.9414991E-18
   41.44000       -2.9415031E-18
   41.63000       -2.9415037E-18
   41.82000       -2.9415022E-18
   42.01000       -2.9415018E-18
   42.20000       -2.9415039E-18
   42.39000       -2.9415082E-18
   42.58000       -2.9415142E-18
   42.77000       -2.9415196E-18
   42.96000       -2.9415242E-18
   43.15000       -2.9415262E-18
   43.34000       -2.9415266E-18
   43.53000       -2.9415244E-18
   43.72000       -2.9415204E-18
   43.91000       -2.9415148E-18
   44.10000       -2.9415058E-18
   44.29000       -2.9414915E-18
   44.48000       -2.9414702E-18
   44.67000       -2.9414410E-18
   44.86000       -2.9414036E-18
   45.05000       -2.9413602E-18
   45.24000       -2.9413136E-18
   45.43000       -2.9412663E-18
   45.62000       -2.9412204E-18
   45.81000       -2.9411759E-18
   46.00000       -2.9411348E-18
   46.19000       -2.9410990E-18
   46.38000       -2.9410725E-18
   46.57000       -2.9410607E-18
   46.76000       -2.9410698E-18
   46.95000       -2.9411050E-18
   47.14000       -2.9411697E-18
   47.33000       -2.9412661E-18
   47.52000       -2.9413964E-18
   47.71000       -2.9415626E-18
   47.90000       -2.9417676E-18
   48.09000       -2.9420138E-18
   48.28000       -2.9423009E-18
   48.47000       -2.9426237E-18
   48.66000       -2.9429709E-18
   48.85000       -2.9433249E-18
   49.04000       -2.9436620E-18
   49.23000       -2.9439583E-18
   49.42000       -2.9441881E-18
   49.61000       -2.9443277E-18
   49.80000       -2.9443539E-18
   49.99000       -2.9442452E-18
   50.18000       -2.9439782E-18
   50.37000       -2.9435317E-18
   50.56000       -2.9428880E-18
   50.75000       -2.9420349E-18
   50.94000       -2.9409699E-18
   51.13000       -2.9397042E-18
   51.32000       -2.9382630E-18
   51.51000       -2.9366866E-18
   51.70000       -2.9350302E-18
   51.89000       -2.9333615E-18
   52.08000       -2.9317611E-18
   52.27000       -2.9303175E-18
   52.46000       -2.9291280E-18
   52.65000       -2.9282938E-18
   52.84000       -2.9279179E-18
   53.03000       -2.9280984E-18
   53.22000       -2.9289243E-18
   53.41000       -2.9304668E-18
   53.60000       -2.9327734E-18
   53.79000       -2.9358629E-18
   53.98000       -2.9397190E-18
   54.17000       -2.9442878E-18
   54.36000       -2.9494752E-18
   54.55000       -2.9551474E-18
   54.74000       -2.9611283E-18
   54.93000       -2.9672046E-18
   55.12000       -2.9731264E-18
   55.31000       -2.9786166E-18
   55.50000       -2.9833809E-18
   55.69000       -2.9871190E-18
   55.88000       -2.9895350E-18
   56.07000       -2.9903551E-18
   56.26000       -2.9893352E-18
   56.45000       -2.9862752E-18
   56.64000       -2.9810330E-18
   56.83000       -2.9735334E-18
   57.02000       -2.9637809E-18
   57.21000       -2.9518701E-18
   57.40000       -2.9379927E-18
   57.59000       -2.9224407E-18
   57.78000       -2.9056020E-18
   57.97000       -2.8879545E-18
   58.16000       -2.8700564E-18
   58.35000       -2.8525311E-18
   58.54000       -2.8360520E-18
   58.73000       -2.8213249E-18
   58.92000       -2.8090686E-18
   59.11000       -2.7999925E-18
   59.30000       -2.7947695E-18
   59.49000       -2.7940095E-18
   59.68000       -2.7982333E-18
   59.87000       -2.8078418E-18
   60.06000       -2.8230942E-18
   60.25000       -2.8440879E-18
   60.44000       -2.8707376E-18
   60.63000       -2.9027660E-18
   60.82000       -2.9396948E-18
   61.01000       -2.9808415E-18
   61.20000       -3.0253200E-18
   61.39000       -3.0720497E-18
   61.58000       -3.1197719E-18
   61.77000       -3.1670713E-18
   61.96000       -3.2124124E-18
   62.15000       -3.2541759E-18
   62.34000       -3.2907056E-18
   62.53000       -3.3203555E-18
   62.72000       -3.3415431E-18
   62.91000       -3.3527963E-18
   63.10000       -3.3528101E-18
   63.29000       -3.3404909E-18
   63.48000       -3.3150065E-18
   63.67000       -3.2758263E-18
   63.86000       -3.2227548E-18
   64.05000       -3.1559614E-18
   64.24000       -3.0759933E-18
   64.43000       -2.9837898E-18
   64.62000       -2.8806823E-18
   64.81000       -2.7683990E-18
   65.00000       -2.6490571E-18
   65.19000       -2.5251580E-18
   65.38000       -2.3995732E-18
   65.57000       -2.2755255E-18
   65.76000       -2.1565604E-18
   65.95000       -2.0465081E-18
   66.14000       -1.9494323E-18
   66.33000       -1.8695632E-18
   66.52000       -1.8112096E-18
   66.71000       -1.7786503E-18
   66.90000       -1.7759926E-18
   67.09000       -1.8070046E-18
   67.28000       -1.8749215E-18
   67.47000       -1.9822306E-18
   67.66000       -2.1304425E-18
   67.85000       -2.3198708E-18
   68.04000       -2.5494226E-18
   68.23000       -2.8164276E-18
   68.42000       -3.1165126E-18
   68.61000       -3.4435467E-18
   68.80000       -3.7896651E-18
   68.99000       -4.1453854E-18
   69.18000       -4.4998199E-18
   69.37000       -4.8409906E-18
   69.56000       -5.1562299E-18
   69.75000       -5.4326675E-18
   69.94000       -5.6577607E-18
   70.13000       -5.8198658E-18
   70.32000       -5.9088034E-18
   70.51000       -5.9163928E-18
   70.70000       -5.8369152E-18
   70.89000       -5.6674863E-18
   71.08000       -5.4083000E-18
   71.27000       -5.0627420E-18
   71.46000       -4.6373400E-18
   71.65000       -4.1415626E-18
   71.84000       -3.5874720E-18
   72.03000       -2.9892341E-18
   72.22000       -2.3625275E-18
   72.41000       -1.7238710E-18
   72.60000       -1.0899216E-18
   72.79000       -4.7677760E-19
   72.98000        1.0066059E-19
   73.17000        6.2923526E-19
   73.36000        1.0979460E-18
   73.55000        1.4981988E-18
   73.74000        1.8238816E-18
   73.93000        2.0712518E-18
   74.12000        2.2386593E-18
   74.31000        2.3261127E-18
   74.50000        2.3347398E-18
   74.69000        2.2661810E-18
   74.88000        2.1219739E-18
   75.07000        1.9029842E-18
   75.26000        1.6089338E-18
   75.45000        1.2380674E-18
   75.64000        7.8699726E-19
   75.83000        2.5074238E-19
   76.02000       -3.7702109E-19
   76.21000       -1.1035099E-18
   76.40000       -1.9361949E-18
   76.59000       -2.8819980E-18
   76.78000       -3.9463509E-18
   76.97000       -5.1321602E-18
   77.16000       -6.4386908E-18
   77.35000       -7.8604376E-18
   77.54000       -9.3859895E-18
   77.73000       -1.0996940E-17
   77.92000       -1.2666901E-17
   78.11000       -1.4360654E-17
   78.30000       -1.6033561E-17
   78.49000       -1.7631279E-17
   78.68000       -1.9089929E-17
   78.87000       -2.0336798E-17
   79.06000       -2.1291712E-17
   79.25000       -2.1869165E-17
   79.44000       -2.1981274E-17
   79.63000       -2.1541572E-17
   79.82000       -2.0469600E-17
   80.01000       -1.8696178E-17
   80.20000       -1.6169166E-17
   80.39000       -1.2859405E-17
   80.58000       -8.7665321E-18
   80.77000       -3.9242027E-18
   80.96000        1.5956784E-18
   81.15000        7.6801826E-18
   81.34000        1.4174441E-17
   81.53000        2.0882921E-17
   81.72000        2.7573141E-17
   81.91000        3.3981943E-17
   82.10000        3.9824227E-17
   82.29000        4.4803993E-17
   82.48000        4.8627281E-17
   82.67000        5.1016497E-17
   82.86000        5.1725470E-17
   83.05000        5.0554430E-17
   83.24000        4.7364180E-17
   83.43000        4.2088538E-17
   83.62000        3.4744296E-17
   83.81000        2.5437983E-17
   84.00000        1.4368804E-17
   84.19000        1.8273596E-18
   84.38000       -1.1810128E-17
   84.57000       -2.6092059E-17
   84.76000       -4.0506032E-17
   84.95000       -5.4497292E-17
   85.14000       -6.7490328E-17
   85.33000       -7.8912911E-17
   85.52000       -8.8221380E-17
   85.71000       -9.4926142E-17
   85.90000       -9.8616135E-17
   86.09000       -9.8981127E-17
   86.28000       -9.5830535E-17
   86.47000       -8.9107959E-17
   86.66000       -7.8900404E-17
   86.85000       -6.5441633E-17
   87.04000       -4.9109280E-17
   87.23000       -3.0415653E-17
   87.42000       -9.9923319E-18
   87.61000        1.1430863E-17
   87.80000        3.3051864E-17
   87.99000        5.4026392E-17
   88.18000        7.3500887E-17
   88.37000        9.0647051E-17
   88.56000        1.0469677E-16
   88.75000        1.1497601E-16
   88.94000        1.2093633E-16
   89.13000        1.2218264E-16
   89.32000        1.1849624E-16
   89.51000        1.0985178E-16
   89.70000        9.6427151E-17
   89.89000        7.8605690E-17
   90.08000        5.6970066E-17
   90.27000        3.2287374E-17
   90.46000        5.4856310E-18
   90.65000       -2.2377974E-17
   90.84000       -5.0156467E-17
   91.03000       -7.6658917E-17
   91.22000       -1.0070103E-16
   91.41000       -1.2115856E-16
   91.60000       -1.3702120E-16
   91.79000       -1.4744434E-16
   91.98000       -1.5179589E-16
   92.17000       -1.4969552E-16
   92.36000       -1.4104369E-16
   92.55000       -1.2603820E-16
   92.74000       -1.0517701E-16
   92.93000       -7.9245689E-17
   93.12000       -4.9289932E-17
   93.31000       -1.6573563E-17
   93.50000        1.7476351E-17
   93.69000        5.1334869E-17
   93.88000        8.3451744E-17
   94.07000        1.1232770E-16
   94.26000        1.3659014E-16
   94.45000        1.5506435E-16
   94.64000        1.6683588E-16
   94.83000        1.7130061E-16
   95.02000        1.6819938E-16
   95.21000        1.5763520E-16
   95.40000        1.4007164E-16
   95.59000        1.1631231E-16
   95.78000        8.7462412E-17
   95.97000        5.4874007E-17
   96.16000        2.0078248E-17
   96.35000       -1.5292224E-17
   96.54000       -4.9586328E-17
   96.73000       -8.1218475E-17
   96.92000       -1.0874894E-16
   97.11000       -1.3095651E-16
   97.30000       -1.4689899E-16
   97.49000       -1.5595898E-16
   97.68000       -1.5787218E-16
   97.87000       -1.5273717E-16
   98.06000       -1.4100626E-16
   98.25000       -1.2345812E-16
   98.44000       -1.0115417E-16
   98.63000       -7.5381532E-17
   98.82000       -4.7585199E-17
   99.01000       -1.9293781E-17
   99.20000        7.9573857E-18
   99.39000        3.2701967E-17
   99.58000        5.3613347E-17
   99.77000        6.9567365E-17
   99.96000        7.9694670E-17
   100.1500        8.3420410E-17
   100.3400        8.0490351E-17
   100.5300        7.0983141E-17
   100.7200        5.5308740E-17
   100.9100        3.4193516E-17
   101.1000        8.6524341E-18
   101.2900       -2.0048967E-17
   101.4800       -5.0443138E-17
   101.6700       -8.0917031E-17
   101.8600       -1.0977562E-16
   102.0500       -1.3531046E-16
   102.2400       -1.5587201E-16
   102.4300       -1.6994312E-16
   102.6200       -1.7621201E-16
   102.8100       -1.7364150E-16
   103.0000       -1.6153176E-16
   103.1900       -1.3957324E-16
   103.3800       -1.0788642E-16
   103.5700       -6.7045073E-17
   103.7600       -1.8080080E-17
   103.9500        3.7538058E-17
   104.1400        9.7939468E-17
   104.3300        1.6091785E-16
   104.5200        2.2401430E-16
   104.7100        2.8461959E-16
   104.9000        3.4008963E-16
   105.0900        3.8786928E-16
   105.2800        4.2561664E-16
   105.4700        4.5132139E-16
   105.6600        4.6340897E-16
   105.8500        4.6082415E-16
   106.0400        4.4308796E-16
   106.2300        4.1032364E-16
   106.4200        3.6324971E-16
   106.6100        3.0314025E-16
   106.8000        2.3175475E-16
   106.9900        1.5124234E-16
   107.1800        6.4026757E-17
   107.3700       -2.7319048E-17
   107.5600       -1.2020090E-16
   107.7500       -2.1212389E-16
   107.9400       -3.0079752E-16
   108.1300       -3.8421814E-16
   108.3200       -4.6072319E-16
   108.5100       -5.2901480E-16
   108.7000       -5.8815167E-16
   108.8900       -6.3751252E-16
   109.0800       -6.7673496E-16
   109.2700       -7.0563784E-16
   109.4600       -7.2413482E-16
   109.6500       -7.3214934E-16
   109.8400       -7.2953894E-16
   110.0300       -7.1603983E-16
   110.2200       -6.9123574E-16
   110.4100       -6.5455853E-16
   110.6000       -6.0531997E-16
   110.7900       -5.4277660E-16
   110.9800       -4.6622112E-16
   111.1700       -3.7509597E-16
   111.3600       -2.6911865E-16
   111.5500       -1.4841088E-16
   111.7400       -1.3617905E-17
   111.9300        1.3399057E-16
   112.1200        2.9244937E-16
   112.3100        4.5906348E-16
   112.5000        6.3041703E-16
   112.6900        8.0242719E-16
   112.8800        9.7044321E-16
   113.0700        1.1293864E-15
   113.2600        1.2739254E-15
   113.4500        1.3986765E-15
   113.6400        1.4984211E-15
   113.8300        1.5683264E-15
   114.0200        1.6041603E-15
   114.2100        1.6024886E-15
   114.4000        1.5608456E-15
   114.5900        1.4778709E-15
   114.7800        1.3534065E-15
   114.9700        1.1885521E-15
   115.1600        9.8567594E-16
   115.3500        7.4838437E-16
   115.5400        4.8145051E-16
   115.7300        1.9070609E-16
   115.9200       -1.1709905E-16
   116.1100       -4.3446681E-16
   116.3000       -7.5334496E-16
   116.4900       -1.0653423E-15
   116.6800       -1.3619608E-15
   116.8700       -1.6348404E-15
   117.0600       -1.8760137E-15
   117.2500       -2.0781629E-15
   117.4400       -2.2348748E-15
   117.6300       -2.3408869E-15
   117.8200       -2.3923105E-15
   118.0100       -2.3868279E-15
   118.2000       -2.3238448E-15
   118.3900       -2.2045919E-15
   118.5800       -2.0321606E-15
   118.7700       -1.8114657E-15
   118.9600       -1.5491285E-15
   119.1500       -1.2532756E-15
   119.3400       -9.3325720E-16
   119.5300       -5.9929132E-16
   119.7200       -2.6204531E-16
   119.9100        6.7824145E-17
   120.1000        3.8015434E-16
   120.2900        6.6575429E-16
   120.4800        9.1684911E-16
   120.6700        1.1274655E-15
   120.8600        1.2937302E-15
   121.0500        1.4140614E-15
   121.2400        1.4892366E-15
   121.4300        1.5223290E-15
   121.6200        1.5185124E-15
   121.8100        1.4847409E-15
   122.0000        1.4293236E-15
   122.1900        1.3614155E-15
   122.3800        1.2904549E-15
   122.5700        1.2255821E-15
   122.7600        1.1750735E-15
   122.9500        1.1458266E-15
   123.1400        1.1429265E-15
   123.3300        1.1693193E-15
   123.5200        1.2256105E-15
   123.7100        1.3099974E-15
   123.9000        1.4183382E-15
   124.0900        1.5443454E-15
   124.2800        1.6798918E-15
   124.4700        1.8154029E-15
   124.6600        1.9403128E-15
   124.8500        2.0435513E-15
   125.0400        2.1140375E-15
   125.2300        2.1411525E-15
   125.4200        2.1151719E-15
   125.6100        2.0276427E-15
   125.8000        1.8716984E-15
   125.9900        1.6423094E-15
   126.1800        1.3364758E-15
   126.3700        9.5336713E-16
   126.5600        4.9442361E-16
   126.7500       -3.6576838E-17
   126.9400       -6.3346926E-16
   127.1300       -1.2876794E-15
   127.3200       -1.9882207E-15
   127.5100       -2.7217269E-15
   127.7000       -3.4725278E-15
   127.8900       -4.2227913E-15
   128.0800       -4.9527541E-15
   128.2700       -5.6410522E-15
   128.4600       -6.2651766E-15
   128.6500       -6.8020502E-15
   128.8400       -7.2287359E-15
   129.0300       -7.5232518E-15
   129.2200       -7.6654618E-15
   129.4100       -7.6380281E-15
   129.6000       -7.4273422E-15
   129.7900       -7.0244091E-15
   129.9800       -6.4256034E-15
   130.1700       -5.6332629E-15
   130.3600       -4.6560537E-15
   130.5500       -3.5090807E-15
   130.7400       -2.2137138E-15
   130.9300       -7.9713180E-16
   131.1200        7.0840658E-16
   131.3100        2.2665301E-15
   131.5000        3.8379126E-15
   131.6900        5.3815679E-15
   131.8800        6.8562015E-15
   132.0700        8.2215678E-15
   132.2600        9.4397570E-15
   132.4500        1.0476357E-14
   132.6400        1.1301453E-14
   132.8300        1.1890425E-14
   133.0200        1.2224529E-14
   133.2100        1.2291282E-14
   133.4000        1.2084644E-14
   133.5900        1.1605025E-14
   133.7800        1.0859165E-14
   133.9700        9.8599048E-15
   134.1600        8.6258642E-15
   134.3500        7.1810843E-15
   134.5400        5.5546083E-15
   134.7300        3.7800251E-15
   134.9200        1.8949631E-15
   135.1100       -5.9498532E-17
   135.3000       -2.0394967E-15
   135.4900       -3.9991763E-15
   135.6800       -5.8916101E-15
   135.8700       -7.6698554E-15
   136.0600       -9.2881584E-15
   136.2500       -1.0703258E-14
   136.4400       -1.1875774E-14
   136.6300       -1.2771614E-14
   136.8200       -1.3363335E-14
   137.0100       -1.3631356E-14
   137.2000       -1.3564988E-14
   137.3900       -1.3163139E-14
   137.5800       -1.2434691E-14
   137.7700       -1.1398455E-14
   137.9600       -1.0082696E-14
   138.1500       -8.5242346E-15
   138.3400       -6.7671504E-15
   138.5300       -4.8611517E-15
   138.7200       -2.8596976E-15
   138.9100       -8.1796839E-16
   139.1000        1.2091898E-15
   139.2900        3.1692371E-15
   139.4800        5.0137172E-15
   139.6700        6.6997473E-15
   139.8600        8.1911500E-15
   140.0500        9.4591879E-15
   140.2400        1.0482879E-14
   140.4300        1.1248935E-14
   140.6200        1.1751345E-14
   140.8100        1.1990695E-14
   141.0000        1.1973282E-14
   141.1900        1.1710147E-14
   141.3800        1.1216093E-14
   141.5700        1.0508760E-14
   141.7600        9.6078473E-15
   141.9500        8.5344922E-15
   142.1400        7.3108320E-15
   142.3300        5.9597420E-15
   142.5200        4.5047088E-15