  -30.00000        1.0972605E-17
  -29.81000        1.0972605E-17
  -29.62000        1.0972605E-17
  -29.43000        1.0972605E-17
  -29.24000        1.0972605E-17
  -29.05000        1.0972607E-17
  -28.86000        1.0972608E-17
  -28.67000        1.0972608E-17
  -28.48000        1.0972608E-17
  -28.29000        1.0972608E-17
  -28.10000        1.0972607E-17
  -27.91000        1.0972605E-17
  -27.72000        1.0972605E-17
  -27.53000        1.0972604E-17
  -27.34000        1.0972604E-17
  -27.15000        1.0972604E-17
  -26.96000        1.0972605E-17
  -26.77000        1.0972606E-17
  -26.58000        1.0972608E-17
  -26.39000        1.0972610E-17
  -26.20000        1.0972610E-17
  -26.01000        1.0972610E-17
  -25.82000        1.0972609E-17
  -25.63000        1.0972606E-17
  -25.44000        1.0972604E-17
  -25.25000        1.0972602E-17
  -25.06000        1.0972600E-17
  -24.87000        1.0972601E-17
  -24.68000        1.0972603E-17
  -24.49000        1.0972605E-17
  -24.30000        1.0972608E-17
  -24.11000        1.0972610E-17
  -23.92000        1.0972610E-17
  -23.73000        1.0972610E-17
  -23.54000        1.0972608E-17
  -23.35000        1.0972605E-17
  -23.16000        1.0972603E-17
  -22.97000        1.0972601E-17
  -22.78000        1.0972601E-17
  -22.59000        1.0972602E-17
  -22.40000        1.0972605E-17
  -22.21000        1.0972607E-17
  -22.02000        1.0972610E-17
  -21.83000        1.0972612E-17
  -21.64000        1.0972613E-17
  -21.45000        1.0972612E-17
  -21.26000        1.0972610E-17
  -21.07000        1.0972606E-17
  -20.88000        1.0972604E-17
  -20.69000        1.0972601E-17
  -20.50000        1.0972600E-17
  -20.31000        1.0972602E-17
  -20.12000        1.0972604E-17
  -19.93000        1.0972608E-17
  -19.74000        1.0972611E-17
  -19.55000        1.0972614E-17
  -19.36000        1.0972614E-17
  -19.17000        1.0972611E-17
  -18.98000        1.0972608E-17
  -18.79000        1.0972604E-17
  -18.60000        1.0972600E-17
  -18.41000        1.0972599E-17
  -18.22000        1.0972600E-17
  -18.03000        1.0972603E-17
  -17.84000        1.0972607E-17
  -17.65000        1.0972611E-17
  -17.46000        1.0972613E-17
  -17.27000        1.0972614E-17
  -17.08000        1.0972611E-17
  -16.89000        1.0972608E-17
  -16.70000        1.0972604E-17
  -16.51000        1.0972600E-17
  -16.32000        1.0972598E-17
  -16.13000        1.0972598E-17
  -15.94000        1.0972599E-17
  -15.75000        1.0972602E-17
  -15.56000        1.0972605E-17
  -15.37000        1.0972606E-17
  -15.18000        1.0972608E-17
  -14.99000        1.0972608E-17
  -14.80000        1.0972606E-17
  -14.61000        1.0972604E-17
  -14.42000        1.0972600E-17
  -14.23000        1.0972597E-17
  -14.04000        1.0972595E-17
  -13.85000        1.0972596E-17
  -13.66000        1.0972600E-17
  -13.47000        1.0972604E-17
  -13.28000        1.0972610E-17
  -13.09000        1.0972615E-17
  -12.90000        1.0972617E-17
  -12.71000        1.0972616E-17
  -12.52000        1.0972614E-17
  -12.33000        1.0972609E-17
  -12.14000        1.0972604E-17
  -11.95000        1.0972600E-17
  -11.76000        1.0972600E-17
  -11.57000        1.0972601E-17
  -11.38000        1.0972603E-17
  -11.19000        1.0972606E-17
  -11.00000        1.0972610E-17
  -10.81000        1.0972610E-17
  -10.62000        1.0972609E-17
  -10.43000        1.0972606E-17
  -10.24000        1.0972603E-17
  -10.05000        1.0972600E-17
  -9.860000        1.0972598E-17
  -9.670000        1.0972598E-17
  -9.480000        1.0972600E-17
  -9.290000        1.0972604E-17
  -9.100000        1.0972608E-17
  -8.910000        1.0972611E-17
  -8.720000        1.0972614E-17
  -8.530000        1.0972615E-17
  -8.340000        1.0972613E-17
  -8.150000        1.0972610E-17
  -7.960000        1.0972605E-17
  -7.770000        1.0972601E-17
  -7.580000        1.0972599E-17
  -7.390000        1.0972598E-17
  -7.200000        1.0972599E-17
  -7.010000        1.0972602E-17
  -6.820000        1.0972606E-17
  -6.630000        1.0972610E-17
  -6.440000        1.0972612E-17
  -6.250000        1.0972613E-17
  -6.060000        1.0972611E-17
  -5.870000        1.0972609E-17
  -5.680000        1.0972606E-17
  -5.490000        1.0972605E-17
  -5.300000        1.0972605E-17
  -5.110000        1.0972605E-17
  -4.920000        1.0972608E-17
  -4.730000        1.0972610E-17
  -4.540000        1.0972612E-17
  -4.350000        1.0972614E-17
  -4.160000        1.0972614E-17
  -3.970000        1.0972612E-17
  -3.780000        1.0972608E-17
  -3.590000        1.0972605E-17
  -3.400000        1.0972601E-17
  -3.210000        1.0972599E-17
  -3.020000        1.0972599E-17
  -2.830000        1.0972600E-17
  -2.640000        1.0972603E-17
  -2.450000        1.0972607E-17
  -2.260000        1.0972610E-17
  -2.070000        1.0972611E-17
  -1.880000        1.0972611E-17
  -1.690000        1.0972609E-17
  -1.500000        1.0972605E-17
  -1.310000        1.0972601E-17
  -1.120000        1.0972599E-17
 -0.9300000        1.0972599E-17
 -0.7400000        1.0972601E-17
 -0.5500000        1.0972606E-17
 -0.3600000        1.0972610E-17
 -0.1700000        1.0972615E-17
  2.0000000E-02    1.0972616E-17
  0.2100000        1.0972615E-17
  0.4000000        1.0972610E-17
  0.5900000        1.0972604E-17
  0.7800000        1.0972598E-17
  0.9700000        1.0972595E-17
   1.160000        1.0972592E-17
   1.350000        1.0972594E-17
   1.540000        1.0972597E-17
   1.730000        1.0972602E-17
   1.920000        1.0972607E-17
   2.110000        1.0972610E-17
   2.300000        1.0972612E-17
   2.490000        1.0972610E-17
   2.680000        1.0972607E-17
   2.870000        1.0972603E-17
   3.060000        1.0972600E-17
   3.250000        1.0972597E-17
   3.440000        1.0972598E-17
   3.630000        1.0972601E-17
   3.820000        1.0972605E-17
   4.010000        1.0972610E-17
   4.200000        1.0972613E-17
   4.390000        1.0972613E-17
   4.580000        1.0972611E-17
   4.770000        1.0972607E-17
   4.960000        1.0972603E-17
   5.150000        1.0972599E-17
   5.340000        1.0972596E-17
   5.530000        1.0972595E-17
   5.720000        1.0972598E-17
   5.910000        1.0972601E-17
   6.100000        1.0972606E-17
   6.290000        1.0972611E-17
   6.480000        1.0972615E-17
   6.670000        1.0972615E-17
   6.860000        1.0972615E-17
   7.050000        1.0972612E-17
   7.240000        1.0972609E-17
   7.430000        1.0972606E-17
   7.620000        1.0972605E-17
   7.810000        1.0972606E-17
   8.000000        1.0972610E-17
   8.190000        1.0972614E-17
   8.380000        1.0972618E-17
   8.570000        1.0972620E-17
   8.760000        1.0972620E-17
   8.950000        1.0972617E-17
   9.140000        1.0972611E-17
   9.330000        1.0972605E-17
   9.520000        1.0972598E-17
   9.710000        1.0972593E-17
   9.900000        1.0972591E-17
   10.09000        1.0972592E-17
   10.28000        1.0972595E-17
   10.47000        1.0972599E-17
   10.66000        1.0972602E-17
   10.85000        1.0972605E-17
   11.04000        1.0972606E-17
   11.23000        1.0972607E-17
   11.42000        1.0972607E-17
   11.61000        1.0972606E-17
   11.80000        1.0972606E-17
   11.99000        1.0972607E-17
   12.18000        1.0972607E-17
   12.37000        1.0972609E-17
   12.56000        1.0972611E-17
   12.75000        1.0972614E-17
   12.94000        1.0972616E-17
   13.13000        1.0972618E-17
   13.32000        1.0972618E-17
   13.51000        1.0972616E-17
   13.70000        1.0972613E-17
   13.89000        1.0972609E-17
   14.08000        1.0972605E-17
   14.27000        1.0972603E-17
   14.46000        1.0972602E-17
   14.65000        1.0972604E-17
   14.84000        1.0972606E-17
   15.03000        1.0972610E-17
   15.22000        1.0972612E-17
   15.41000        1.0972613E-17
   15.60000        1.0972612E-17
   15.79000        1.0972610E-17
   15.98000        1.0972607E-17
   16.17000        1.0972605E-17
   16.36000        1.0972602E-17
   16.55000        1.0972600E-17
   16.74000        1.0972598E-17
   16.93000        1.0972596E-17
   17.12000        1.0972595E-17
   17.31000        1.0972595E-17
   17.50000        1.0972595E-17
   17.69000        1.0972597E-17
   17.88000        1.0972600E-17
   18.07000        1.0972603E-17
   18.26000        1.0972605E-17
   18.45000        1.0972606E-17
   18.64000        1.0972605E-17
   18.83000        1.0972603E-17
   19.02000        1.0972600E-17
   19.21000        1.0972597E-17
   19.40000        1.0972598E-17
   19.59000        1.0972605E-17
   19.78000        1.0972616E-17
   19.97000        1.0972633E-17
   20.16000        1.0972650E-17
   20.35000        1.0972664E-17
   20.54000        1.0972671E-17
   20.73000        1.0972667E-17
   20.92000        1.0972650E-17
   21.11000        1.0972619E-17
   21.30000        1.0972572E-17
   21.49000        1.0972509E-17
   21.68000        1.0972434E-17
   21.87000        1.0972352E-17
   22.06000        1.0972275E-17
   22.25000        1.0972219E-17
   22.44000        1.0972208E-17
   22.63000        1.0972266E-17
   22.82000        1.0972414E-17
   23.01000        1.0972657E-17
   23.20000        1.0972978E-17
   23.39000        1.0973344E-17
   23.58000        1.0973699E-17
   23.77000        1.0973981E-17
   23.96000        1.0974132E-17
   24.15000        1.0974111E-17
   24.34000        1.0973900E-17
   24.53000        1.0973504E-17
   24.72000        1.0972945E-17
   24.91000        1.0972255E-17
   25.10000        1.0971466E-17
   25.29000        1.0970615E-17
   25.48000        1.0969748E-17
   25.67000        1.0968924E-17
   25.86000        1.0968222E-17
   26.05000        1.0967734E-17
   26.24000        1.0967567E-17
   26.43000        1.0967829E-17
   26.62000        1.0968623E-17
   26.81000        1.0970033E-17
   27.00000        1.0972120E-17
   27.19000        1.0974892E-17
   27.38000        1.0978274E-17
   27.57000        1.0982068E-17
   27.76000        1.0985922E-17
   27.95000        1.0989337E-17
   28.14000        1.0991708E-17
   28.33000        1.0992433E-17
   28.52000        1.0991037E-17
   28.71000        1.0987299E-17
   28.90000        1.0981317E-17
   29.09000        1.0973515E-17
   29.28000        1.0964553E-17
   29.47000        1.0955198E-17
   29.66000        1.0946197E-17
   29.85000        1.0938198E-17
   30.04000        1.0931738E-17
   30.23000        1.0927281E-17
   30.42000        1.0925278E-17
   30.61000        1.0926183E-17
   30.80000        1.0930416E-17
   30.99000        1.0938287E-17
   31.18000        1.0949919E-17
   31.37000        1.0965205E-17
   31.56000        1.0983813E-17
   31.75000        1.1005213E-17
   31.94000        1.1028659E-17
   32.13000        1.1053085E-17
   32.32000        1.1076930E-17
   32.51000        1.1097969E-17
   32.70000        1.1113295E-17
   32.89000        1.1119575E-17
   33.08000        1.1113591E-17
   33.27000        1.1092995E-17
   33.46000        1.1057020E-17
   33.65000        1.1006923E-17
   33.84000        1.0945948E-17
   34.03000        1.0878842E-17
   34.22000        1.0811074E-17
   34.41000        1.0748079E-17
   34.60000        1.0694755E-17
   34.79000        1.0655359E-17
   34.98000        1.0633632E-17
   35.17000        1.0632911E-17
   35.36000        1.0655972E-17
   35.55000        1.0704481E-17
   35.74000        1.0778255E-17
   35.93000        1.0874666E-17
   36.12000        1.0988561E-17
   36.31000        1.1112847E-17
   36.50000        1.1239568E-17
   36.69000        1.1360987E-17
   36.88000        1.1470211E-17
   37.07000        1.1561047E-17
   37.26000        1.1627303E-17
   37.45000        1.1662098E-17
   37.64000        1.1657880E-17
   37.83000        1.1607591E-17
   38.02000        1.1506819E-17
   38.21000        1.1356172E-17
   38.40000        1.1162804E-17
   38.59000        1.0940196E-17
   38.78000        1.0706036E-17
   38.97000        1.0478836E-17
   39.16000        1.0274573E-17
   39.35000        1.0104587E-17
   39.54000        9.9754102E-18
   39.73000        9.8901685E-18
   39.92000        9.8504456E-18
   40.11000        9.8573277E-18
   40.30000        9.9109365E-18
   40.49000        1.0008804E-17
   40.68000        1.0144391E-17
   40.87000        1.0307264E-17
   41.06000        1.0485731E-17
   41.25000        1.0671358E-17
   41.44000        1.0863474E-17
   41.63000        1.1071272E-17
   41.82000        1.1311864E-17
   42.01000        1.1604374E-17
   42.20000        1.1962076E-17
   42.39000        1.2385657E-17
   42.58000        1.2860256E-17
   42.77000        1.3357155E-17
   42.96000        1.3838661E-17
   43.15000        1.4263234E-17
   43.34000        1.4588023E-17
   43.53000        1.4767895E-17
   43.72000        1.4752778E-17
   43.91000        1.4487097E-17
   44.10000        1.3915070E-17
   44.29000        1.2993121E-17
   44.48000        1.1706918E-17
   44.67000        1.0087109E-17
   44.86000        8.2168954E-18
   45.05000        6.2268630E-18
   45.24000        4.2772083E-18
   45.43000        2.5326947E-18
   45.62000        1.1386629E-18
   45.81000        2.0574818E-19
   46.00000       -1.9320454E-19
   46.19000       -1.6245824E-20
   46.38000        7.5802516E-19
   46.57000        2.1369645E-18
   46.76000        4.1123938E-18
   46.95000        6.6523205E-18
   47.14000        9.6916203E-18
   47.33000        1.3128514E-17
   47.52000        1.6830538E-17
   47.71000        2.0648020E-17
   47.90000        2.4427995E-17
   48.09000        2.8020353E-17
   48.28000        3.1271808E-17
   48.47000        3.4010600E-17
   48.66000        3.6031849E-17
   48.85000        3.7095920E-17
   49.04000        3.6948523E-17
   49.23000        3.5361938E-17
   49.42000        3.2186802E-17
   49.61000        2.7397597E-17
   49.80000        2.1115980E-17
   49.99000        1.3604482E-17
   50.18000        5.2343770E-18
   50.37000       -3.5591563E-18
   50.56000       -1.2319069E-17
   50.75000       -2.0595249E-17
   50.94000       -2.7959287E-17
   51.13000       -3.4013088E-17
   51.32000       -3.8401860E-17
   51.51000       -4.0837520E-17
   51.70000       -4.1129260E-17
   51.89000       -3.9209774E-17
   52.08000       -3.5143506E-17
   52.27000       -2.9109333E-17
   52.46000       -2.1361165E-17
   52.65000       -1.2180573E-17
   52.84000       -1.8391871E-18
   53.03000        9.4167349E-18
   53.22000        2.1359076E-17
   53.41000        3.3759080E-17
   53.60000        4.6372993E-17
   53.79000        5.8942541E-17
   53.98000        7.1208333E-17
   54.17000        8.2921687E-17
   54.36000        9.3836487E-17
   54.55000        1.0367070E-16
   54.74000        1.1204502E-16
   54.93000        1.1842336E-16
   55.12000        1.2208905E-16
   55.31000        1.2218138E-16
   55.50000        1.1779644E-16
   55.69000        1.0812967E-16
   55.88000        9.2620300E-17
   56.07000        7.1057673E-17
   56.26000        4.3627626E-17
   56.45000        1.0903025E-17
   56.64000       -2.6195778E-17
   56.83000       -6.6440126E-17
   57.02000       -1.0831487E-16
   57.21000       -1.5002984E-16
   57.40000       -1.8954756E-16
   57.59000       -2.2465749E-16
   57.78000       -2.5310914E-16
   57.97000       -2.7278852E-16
   58.16000       -2.8189661E-16
   58.35000       -2.7908364E-16
   58.54000       -2.6351137E-16
   58.73000       -2.3485000E-16
   58.92000       -1.9325006E-16
   59.11000       -1.3933937E-16
   59.30000       -7.4277967E-17
   59.49000        1.3857092E-19
   59.68000        8.1381318E-17
   59.87000        1.6617229E-16
   60.06000        2.5061434E-16
   60.25000        3.3048391E-16
   60.44000        4.0164137E-16
   60.63000        4.6046627E-16
   60.82000        5.0421055E-16
   61.01000        5.3118828E-16
   61.20000        5.4077479E-16
   61.39000        5.3324176E-16
   61.58000        5.0949169E-16
   61.77000        4.7076053E-16
   61.96000        4.1833888E-16
   62.15000        3.5334101E-16
   62.34000        2.7654035E-16
   62.53000        1.8829550E-16
   62.72000        8.8603458E-17
   62.91000       -2.2684308E-17
   63.10000       -1.4547579E-16
   63.29000       -2.7893094E-16
   63.48000       -4.2094221E-16
   63.67000       -5.6774988E-16
   63.86000       -7.1382675E-16
   64.05000       -8.5209852E-16
   64.24000       -9.7447054E-16
   64.43000       -1.0725370E-15
   64.62000       -1.1383082E-15
   64.81000       -1.1648126E-15
   65.00000       -1.1465073E-15
   65.19000       -1.0795216E-15
   65.38000       -9.6182518E-16
   65.57000       -7.9341349E-16
   65.76000       -5.7655119E-16
   65.95000       -3.1603435E-16
   66.14000       -1.9365157E-17
   66.33000        3.0328099E-16
   66.52000        6.3937324E-16
   66.71000        9.7462766E-16
   66.90000        1.2938194E-15
   67.09000        1.5816926E-15
   67.28000        1.8238676E-15
   67.47000        2.0076864E-15
   67.66000        2.1229735E-15
   67.85000        2.1627004E-15
   68.04000        2.1235105E-15
   68.23000        2.0060186E-15
   68.42000        1.8147838E-15
   68.61000        1.5578854E-15
   68.80000        1.2461173E-15
   68.99000        8.9192972E-16
   69.18000        5.0832369E-16
   69.37000        1.0791582E-16
   69.56000       -2.9767642E-16
   69.75000       -6.9810656E-16
   69.94000       -1.0843192E-15
   70.13000       -1.4484680E-15
   70.32000       -1.7838605E-15
   70.51000       -2.0849602E-15
   70.70000       -2.3473797E-15
   70.89000       -2.5677359E-15
   71.08000       -2.7432710E-15
   71.27000       -2.8712352E-15
   71.46000       -2.9481630E-15
   71.65000       -2.9692537E-15
   71.84000       -2.9280883E-15
   72.03000       -2.8168381E-15
   72.22000       -2.6269929E-15
   72.41000       -2.3505285E-15
   72.60000       -1.9813505E-15
   72.79000       -1.5168283E-15
   72.98000       -9.5925242E-16
   73.17000       -3.1704160E-16
   73.36000        3.9447807E-16
   73.55000        1.1529317E-15
   73.74000        1.9295794E-15
   73.93000        2.6909366E-15
   74.12000        3.4012587E-15
   74.31000        4.0255961E-15
   74.50000        4.5329413E-15
   74.69000        4.8989175E-15
   74.88000        5.1075557E-15
   75.07000        5.1519547E-15
   75.26000        5.0339130E-15
   75.45000        4.7628586E-15
   75.64000        4.3544816E-15
   75.83000        3.8293779E-15
   76.02000        3.2117973E-15
   76.21000        2.5283800E-15
   76.40000        1.8066711E-15
   76.59000        1.0732799E-15
   76.78000        3.5175690E-16
   76.97000       -3.3948959E-16
   77.16000       -9.8876136E-16
   77.35000       -1.5916677E-15
   77.54000       -2.1504902E-15
   77.73000       -2.6723502E-15
   77.92000       -3.1665037E-15
   78.11000       -3.6412773E-15
   78.30000       -4.1011904E-15
   78.49000       -4.5447290E-15
   78.68000       -4.9630917E-15
   78.87000       -5.3400629E-15
   79.06000       -5.6530678E-15
   79.25000       -5.8753115E-15
   79.44000       -5.9787838E-15
   79.63000       -5.9377543E-15
   79.82000       -5.7322264E-15
   80.01000       -5.3507639E-15
   80.20000       -4.7921795E-15
   80.39000       -4.0658246E-15
   80.58000       -3.1905499E-15
   80.77000       -2.1927301E-15
   80.96000       -1.1039322E-15
   81.15000        4.1239391E-17
   81.34000        1.2068160E-15
   81.53000        2.3566619E-15
   81.72000        3.4554730E-15
   81.91000        4.4699182E-15
   82.10000        5.3701406E-15
   82.29000        6.1315614E-15
   82.48000        6.7366762E-15
   82.67000        7.1763681E-15
   82.86000        7.4503282E-15
   83.05000        7.5663751E-15
   83.24000        7.5387313E-15
   83.43000        7.3855208E-15
   83.62000        7.1258519E-15
   83.81000        6.7768357E-15
   84.00000        6.3508468E-15
   84.19000        5.8532886E-15
   84.38000        5.2811869E-15
   84.57000        4.6229462E-15
   84.76000        3.8595747E-15
   84.95000        2.9674800E-15
   85.14000        1.9226089E-15
   85.33000        7.0531253E-16
   85.52000       -6.9495750E-16
   85.71000       -2.2760434E-15
   85.90000       -4.0212356E-15
   86.09000       -5.8993825E-15
   86.28000       -7.8666355E-15
   86.47000       -9.8691705E-15
   86.66000       -1.1846127E-14
   86.85000       -1.3732216E-14
   87.04000       -1.5459762E-14
   87.23000       -1.6960297E-14
   87.42000       -1.8165924E-14
   87.61000       -1.9010735E-14
   87.80000       -1.9432340E-14
   87.99000       -1.9373576E-14
   88.18000       -1.8784335E-14
   88.37000       -1.7623613E-14
   88.56000       -1.5861935E-14
   88.75000       -1.3484239E-14
   88.94000       -1.0493068E-14
   89.13000       -6.9115860E-15
   89.32000       -2.7855932E-15
   89.51000        1.8163232E-15
   89.70000        6.8050047E-15
   89.89000        1.2075189E-14
   90.08000        1.7511339E-14
   90.27000        2.2993475E-14
   90.46000        2.8401559E-14
   90.65000        3.3617528E-14
   90.84000        3.8524956E-14
   91.03000        4.3007298E-14
   91.22000        4.6946201E-14
   91.41000        5.0221451E-14
   91.60000        5.2713584E-14
   91.79000        5.4309205E-14
   91.98000        5.4908298E-14
   92.17000        5.4432028E-14
   92.36000        5.2829540E-14
   92.55000        5.0082581E-14
   92.74000        4.6207236E-14
   92.93000        4.1252886E-14
   93.12000        3.5298800E-14
   93.31000        2.8449211E-14
   93.50000        2.0827727E-14
   93.69000        1.2571982E-14
   93.88000        3.8291501E-15
   94.07000       -5.2472361E-15
   94.26000       -1.4499156E-14
   94.45000       -2.3765183E-14
   94.64000       -3.2881562E-14
   94.83000       -4.1684250E-14
   95.02000       -5.0012630E-14
   95.21000       -5.7714907E-14
   95.40000       -6.4654533E-14
   95.59000       -7.0716362E-14
   95.78000       -7.5811014E-14
   95.97000       -7.9876555E-14
   96.16000       -8.2877207E-14
   96.35000       -8.4800012E-14
   96.54000       -8.5650887E-14
   96.73000       -8.5451496E-14
   96.92000       -8.4237847E-14
   97.11000       -8.2060565E-14
   97.30000       -7.8985788E-14
   97.49000       -7.5095339E-14
   97.68000       -7.0484959E-14
   97.87000       -6.5260250E-14
   98.06000       -5.9530580E-14
   98.25000       -5.3402195E-14
   98.44000       -4.6971650E-14
   98.63000       -4.0320439E-14
   98.82000       -3.3511419E-14
   99.01000       -2.6587004E-14
   99.20000       -1.9569063E-14
   99.39000       -1.2460778E-14
   99.58000       -5.2505163E-15
   99.77000        2.0820906E-15
   99.96000        9.5584060E-15
   100.1500        1.7192573E-14
   100.3400        2.4984694E-14
   100.5300        3.2917276E-14
   100.7200        4.0956239E-14
   100.9100        4.9056089E-14
   101.1000        5.7167948E-14
   101.2900        6.5247402E-14
   101.4800        7.3259480E-14
   101.6700        8.1178567E-14
   101.8600        8.8982858E-14
   102.0500        9.6644481E-14
   102.2400        1.0411764E-13
   102.4300        1.1132742E-13
   102.6200        1.1816161E-13
   102.8100        1.2446644E-13
   103.0000        1.3004661E-13
   103.1900        1.3466890E-13
   103.3800        1.3806834E-13
   103.5700        1.3995571E-13
   103.7600        1.4002584E-13
   103.9500        1.3796523E-13
   104.1400        1.3345871E-13
   104.3300        1.2619428E-13
   104.5200        1.1586626E-13
   104.7100        1.0217749E-13
   104.9000        8.4842174E-14
   105.0900        6.3590450E-14
   105.2800        3.8176039E-14
   105.4700        8.3867697E-15
   105.6600       -2.5944363E-14
   105.8500       -6.4929954E-14
   106.0400       -1.0862405E-13
   106.2300       -1.5702512E-13
   106.4200       -2.1008649E-13
   106.6100       -2.6773202E-13
   106.8000       -3.2987385E-13
   106.9900       -3.9642795E-13
   107.1800       -4.6732561E-13
   107.3700       -5.4251872E-13
   107.5600       -6.2198001E-13
   107.7500       -7.0570129E-13
   107.9400       -7.9369128E-13
   108.1300       -8.8597581E-13
   108.3200       -9.8260061E-13
   108.5100       -1.0836399E-12
   108.7000       -1.1892060E-12
   108.8900       -1.2994640E-12
   109.0800       -1.4146468E-12
   109.2700       -1.5350692E-12
   109.4600       -1.6611406E-12
   109.6500       -1.7933733E-12
   109.8400       -1.9323826E-12
   110.0300       -2.0788818E-12
   110.2200       -2.2336731E-12
   110.4100       -2.3976359E-12
   110.6000       -2.5717180E-12
   110.7900       -2.7569325E-12
   110.9800       -2.9543605E-12
   111.1700       -3.1651567E-12
   111.3600       -3.3905565E-12
   111.5500       -3.6318737E-12
   111.7400       -3.8904908E-12
   111.9300       -4.1678362E-12
   112.1200       -4.4653573E-12
   112.3100       -4.7844840E-12
   112.5000       -5.1266031E-12
   112.6900       -5.4930279E-12
   112.8800       -5.8849869E-12
   113.0700       -6.3036117E-12
   113.2600       -6.7499322E-12
   113.4500       -7.2248743E-12
   113.6400       -7.7292539E-12
   113.8300       -8.2637733E-12
   114.0200       -8.8290139E-12
   114.2100       -9.4254292E-12
   114.4000       -1.0053339E-11
   114.5900       -1.0712919E-11
   114.7800       -1.1404201E-11
   114.9700       -1.2127069E-11
   115.1600       -1.2881262E-11
   115.3500       -1.3666387E-11
   115.5400       -1.4481940E-11
   115.7300       -1.5327340E-11
   115.9200       -1.6201967E-11
   116.1100       -1.7105204E-11
   116.3000       -1.8036484E-11
   116.4900       -1.8995314E-11
   116.6800       -1.9981305E-11
   116.8700       -2.0994180E-11
   117.0600       -2.2033783E-11
   117.2500       -2.3100060E-11
   117.4400       -2.4193071E-11
   117.6300       -2.5312970E-11
   117.8200       -2.6459999E-11
   118.0100       -2.7634497E-11
   118.2000       -2.8836883E-11
   118.3900       -3.0067664E-11
   118.5800       -3.1327416E-11
   118.7700       -3.2616802E-11
   118.9600       -3.3936527E-11
   119.1500       -3.5287346E-11
   119.3400       -3.6670028E-11
   119.5300       -3.8085320E-11
   119.7200       -3.9533911E-11
   119.9100       -4.1016426E-11
   120.1000       -4.2533393E-11
   120.2900       -4.4085235E-11
   120.4800       -4.5672289E-11
   120.6700       -4.7294769E-11
   120.8600       -4.8952800E-11
   121.0500       -5.0646397E-11
   121.2400       -5.2375423E-11
   121.4300       -5.4139606E-11
   121.6200       -5.5938452E-11
   121.8100       -5.7771267E-11
   122.0000       -5.9637129E-11
   122.1900       -6.1534895E-11
   122.3800       -6.3463228E-11
   122.5700       -6.5420641E-11
   122.7600       -6.7405498E-11
   122.9500       -6.9416105E-11
   123.1400       -7.1450713E-11
   123.3300       -7.3507554E-11
   123.5200       -7.5584893E-11
   123.7100       -7.7681021E-11
   123.9000       -7.9794324E-11
   124.0900       -8.1923274E-11
   124.2800       -8.4066434E-11
   124.4700       -8.6222508E-11
   124.6600       -8.8390302E-11
   124.8500       -9.0568747E-11
   125.0400       -9.2756899E-11
   125.2300       -9.4953934E-11
   125.4200       -9.7159114E-11
   125.6100       -9.9371816E-11
   125.8000       -1.0159146E-10
   125.9900       -1.0381748E-10
   126.1800       -1.0604934E-10
   126.3700       -1.0828645E-10
   126.5600       -1.1052810E-10
   126.7500       -1.1277351E-10
   126.9400       -1.1502174E-10
   127.1300       -1.1727179E-10
   127.3200       -1.1952246E-10
   127.5100       -1.2177248E-10
   127.7000       -1.2402035E-10
   127.8900       -1.2626447E-10
   128.0800       -1.2850303E-10
   128.2700       -1.3073398E-10
   128.4600       -1.3295511E-10
   128.6500       -1.3516391E-10
   128.8400       -1.3735772E-10
   129.0300       -1.3953361E-10
   129.2200       -1.4168848E-10
   129.4100       -1.4381901E-10
   129.6000       -1.4592177E-10
   129.7900       -1.4799321E-10
   129.9800       -1.5002967E-10
   130.1700       -1.5202746E-10
   130.3600       -1.5398292E-10
   130.5500       -1.5589238E-10
   130.7400       -1.5775231E-10
   130.9300       -1.5955920E-10
   131.1200       -1.6130970E-10
   131.3100       -1.6300067E-10
   131.5000       -1.6462903E-10
   131.6900       -1.6619202E-10
   131.8800       -1.6768704E-10
   132.0700       -1.6911179E-10
   132.2600       -1.7046421E-10
   132.4500       -1.7174247E-10
   132.6400       -1.7294499E-10
   132.8300       -1.7407042E-10
   133.0200       -1.7511760E-10
   133.2100       -1.7608548E-10
   133.4000       -1.7697316E-10
   133.5900       -1.7777972E-10
   133.7800       -1.7850423E-10
   133.9700       -1.7914563E-10
   134.1600       -1.7970270E-10
   134.3500       -1.8017407E-10
   134.5400       -1.8055814E-10
   134.7300       -1.8085311E-10
   134.9200       -1.8105706E-10
   135.1100       -1.8116787E-10
   135.3000       -1.8118328E-10
   135.4900       -1.8110086E-10
   135.6800       -1.8091803E-10
   135.8700       -1.8063208E-10
   136.0600       -1.8024011E-10
   136.2500       -1.7973915E-10
   136.4400       -1.7912610E-10
   136.6300       -1.7839788E-10
   136.8200       -1.7755145E-10
   137.0100       -1.7658383E-10
   137.2000       -1.7549219E-10
   137.3900       -1.7427387E-10
   137.5800       -1.7292631E-10
   137.7700       -1.7144709E-10
   137.9600       -1.6983404E-10
   138.1500       -1.6808505E-10
   138.3400       -1.6619826E-10
   138.5300       -1.6417202E-10
   138.7200       -1.6200484E-10
   138.9100       -1.5969538E-10
   139.1000       -1.5724254E-10
   139.2900       -1.5464528E-10
   139.4800       -1.5190277E-10
   139.6700       -1.4901422E-10
   139.8600       -1.4597895E-10
   140.0500       -1.4279633E-10
   140.2400       -1.3946584E-10
   140.4300       -1.3598699E-10
   140.6200       -1.3235943E-10
   140.8100       -1.2858289E-10
   141.0000       -1.2465726E-10
   141.1900       -1.2058250E-10
   141.3800       -1.1635877E-10
   141.5700       -1.1198626E-10
   141.7600       -1.0746529E-10
   141.9500       -1.0279613E-10
   142.1400       -9.7979069E-11
   142.3300       -9.3014332E-11
   142.5200       -8.7902005E-11