  -30.00000        4.9100746E-18
  -29.81000        4.9100746E-18
  -29.62000        4.9100746E-18
  -29.43000        4.9100746E-18
  -29.24000        4.9100746E-18
  -29.05000        4.9100750E-18
  -28.86000        4.9100755E-18
  -28.67000        4.9100755E-18
  -28.48000        4.9100755E-18
  -28.29000        4.9100755E-18
  -28.10000        4.9100750E-18
  -27.91000        4.9100746E-18
  -27.72000        4.9100738E-18
  -27.53000        4.9100734E-18
  -27.34000        4.9100730E-18
  -27.15000        4.9100734E-18
  -26.96000        4.9100742E-18
  -26.77000        4.9100750E-18
  -26.58000        4.9100759E-18
  -26.39000        4.9100767E-18
  -26.20000        4.9100767E-18
  -26.01000        4.9100763E-18
  -25.82000        4.9100746E-18
  -25.63000        4.9100738E-18
  -25.44000        4.9100730E-18
  -25.25000        4.9100722E-18
  -25.06000        4.9100730E-18
  -24.87000        4.9100738E-18
  -24.68000        4.9100738E-18
  -24.49000        4.9100746E-18
  -24.30000        4.9100750E-18
  -24.11000        4.9100755E-18
  -23.92000        4.9100755E-18
  -23.73000        4.9100755E-18
  -23.54000        4.9100750E-18
  -23.35000        4.9100750E-18
  -23.16000        4.9100742E-18
  -22.97000        4.9100746E-18
  -22.78000        4.9100746E-18
  -22.59000        4.9100746E-18
  -22.40000        4.9100750E-18
  -22.21000        4.9100750E-18
  -22.02000        4.9100755E-18
  -21.83000        4.9100755E-18
  -21.64000        4.9100755E-18
  -21.45000        4.9100755E-18
  -21.26000        4.9100750E-18
  -21.07000        4.9100746E-18
  -20.88000        4.9100742E-18
  -20.69000        4.9100734E-18
  -20.50000        4.9100730E-18
  -20.31000        4.9100726E-18
  -20.12000        4.9100726E-18
  -19.93000        4.9100734E-18
  -19.74000        4.9100738E-18
  -19.55000        4.9100746E-18
  -19.36000        4.9100746E-18
  -19.17000        4.9100746E-18
  -18.98000        4.9100742E-18
  -18.79000        4.9100738E-18
  -18.60000        4.9100738E-18
  -18.41000        4.9100738E-18
  -18.22000        4.9100742E-18
  -18.03000        4.9100755E-18
  -17.84000        4.9100763E-18
  -17.65000        4.9100771E-18
  -17.46000        4.9100775E-18
  -17.27000        4.9100779E-18
  -17.08000        4.9100775E-18
  -16.89000        4.9100767E-18
  -16.70000        4.9100759E-18
  -16.51000        4.9100755E-18
  -16.32000        4.9100750E-18
  -16.13000        4.9100746E-18
  -15.94000        4.9100750E-18
  -15.75000        4.9100759E-18
  -15.56000        4.9100759E-18
  -15.37000        4.9100763E-18
  -15.18000        4.9100763E-18
  -14.99000        4.9100759E-18
  -14.80000        4.9100755E-18
  -14.61000        4.9100746E-18
  -14.42000        4.9100742E-18
  -14.23000        4.9100734E-18
  -14.04000        4.9100730E-18
  -13.85000        4.9100726E-18
  -13.66000        4.9100726E-18
  -13.47000        4.9100726E-18
  -13.28000        4.9100734E-18
  -13.09000        4.9100738E-18
  -12.90000        4.9100738E-18
  -12.71000        4.9100746E-18
  -12.52000        4.9100746E-18
  -12.33000        4.9100750E-18
  -12.14000        4.9100759E-18
  -11.95000        4.9100759E-18
  -11.76000        4.9100759E-18
  -11.57000        4.9100750E-18
  -11.38000        4.9100742E-18
  -11.19000        4.9100734E-18
  -11.00000        4.9100734E-18
  -10.81000        4.9100734E-18
  -10.62000        4.9100738E-18
  -10.43000        4.9100738E-18
  -10.24000        4.9100750E-18
  -10.05000        4.9100759E-18
  -9.860000        4.9100763E-18
  -9.670000        4.9100759E-18
  -9.480000        4.9100750E-18
  -9.290000        4.9100730E-18
  -9.100000        4.9100713E-18
  -8.910000        4.9100709E-18
  -8.720000        4.9100709E-18
  -8.530000        4.9100717E-18
  -8.340000        4.9100730E-18
  -8.150000        4.9100746E-18
  -7.960000        4.9100750E-18
  -7.770000        4.9100742E-18
  -7.580000        4.9100722E-18
  -7.390000        4.9100701E-18
  -7.200000        4.9100668E-18
  -7.010000        4.9100639E-18
  -6.820000        4.9100631E-18
  -6.630000        4.9100647E-18
  -6.440000        4.9100693E-18
  -6.250000        4.9100759E-18
  -6.060000        4.9100821E-18
  -5.870000        4.9100862E-18
  -5.680000        4.9100870E-18
  -5.490000        4.9100841E-18
  -5.300000        4.9100796E-18
  -5.110000        4.9100734E-18
  -4.920000        4.9100684E-18
  -4.730000        4.9100655E-18
  -4.540000        4.9100659E-18
  -4.350000        4.9100697E-18
  -4.160000        4.9100759E-18
  -3.970000        4.9100825E-18
  -3.780000        4.9100875E-18
  -3.590000        4.9100895E-18
  -3.400000        4.9100870E-18
  -3.210000        4.9100817E-18
  -3.020000        4.9100755E-18
  -2.830000        4.9100697E-18
  -2.640000        4.9100659E-18
  -2.450000        4.9100664E-18
  -2.260000        4.9100688E-18
  -2.070000        4.9100738E-18
  -1.880000        4.9100796E-18
  -1.690000        4.9100837E-18
  -1.500000        4.9100850E-18
  -1.310000        4.9100821E-18
  -1.120000        4.9100767E-18
 -0.9300000        4.9100693E-18
 -0.7400000        4.9100626E-18
 -0.5500000        4.9100593E-18
 -0.3600000        4.9100602E-18
 -0.1700000        4.9100651E-18
  2.0000000E-02    4.9100726E-18
  0.2100000        4.9100808E-18
  0.4000000        4.9100879E-18
  0.5900000        4.9100912E-18
  0.7800000        4.9100903E-18
  0.9700000        4.9100850E-18
   1.160000        4.9100763E-18
   1.350000        4.9100676E-18
   1.540000        4.9100614E-18
   1.730000        4.9100593E-18
   1.920000        4.9100618E-18
   2.110000        4.9100680E-18
   2.300000        4.9100759E-18
   2.490000        4.9100829E-18
   2.680000        4.9100875E-18
   2.870000        4.9100879E-18
   3.060000        4.9100837E-18
   3.250000        4.9100767E-18
   3.440000        4.9100684E-18
   3.630000        4.9100618E-18
   3.820000        4.9100585E-18
   4.010000        4.9100593E-18
   4.200000        4.9100647E-18
   4.390000        4.9100738E-18
   4.580000        4.9100829E-18
   4.770000        4.9100903E-18
   4.960000        4.9100937E-18
   5.150000        4.9100937E-18
   5.340000        4.9100891E-18
   5.530000        4.9100808E-18
   5.720000        4.9100722E-18
   5.910000        4.9100651E-18
   6.100000        4.9100626E-18
   6.290000        4.9100647E-18
   6.480000        4.9100713E-18
   6.670000        4.9100796E-18
   6.860000        4.9100875E-18
   7.050000        4.9100912E-18
   7.240000        4.9100903E-18
   7.430000        4.9100854E-18
   7.620000        4.9100779E-18
   7.810000        4.9100697E-18
   8.000000        4.9100626E-18
   8.190000        4.9100597E-18
   8.380000        4.9100626E-18
   8.570000        4.9100697E-18
   8.760000        4.9100788E-18
   8.950000        4.9100862E-18
   9.140000        4.9100899E-18
   9.330000        4.9100887E-18
   9.520000        4.9100821E-18
   9.710000        4.9100726E-18
   9.900000        4.9100631E-18
   10.09000        4.9100556E-18
   10.28000        4.9100527E-18
   10.47000        4.9100544E-18
   10.66000        4.9100610E-18
   10.85000        4.9100701E-18
   11.04000        4.9100784E-18
   11.23000        4.9100841E-18
   11.42000        4.9100850E-18
   11.61000        4.9100808E-18
   11.80000        4.9100722E-18
   11.99000        4.9100626E-18
   12.18000        4.9100560E-18
   12.37000        4.9100544E-18
   12.56000        4.9100581E-18
   12.75000        4.9100672E-18
   12.94000        4.9100788E-18
   13.13000        4.9100908E-18
   13.32000        4.9100999E-18
   13.51000        4.9101036E-18
   13.70000        4.9101007E-18
   13.89000        4.9100916E-18
   14.08000        4.9100788E-18
   14.27000        4.9100664E-18
   14.46000        4.9100585E-18
   14.65000        4.9100564E-18
   14.84000        4.9100597E-18
   15.03000        4.9100688E-18
   15.22000        4.9100784E-18
   15.41000        4.9100858E-18
   15.60000        4.9100895E-18
   15.79000        4.9100875E-18
   15.98000        4.9100800E-18
   16.17000        4.9100697E-18
   16.36000        4.9100597E-18
   16.55000        4.9100531E-18
   16.74000        4.9100523E-18
   16.93000        4.9100581E-18
   17.12000        4.9100680E-18
   17.31000        4.9100800E-18
   17.50000        4.9100899E-18
   17.69000        4.9100957E-18
   17.88000        4.9100957E-18
   18.07000        4.9100903E-18
   18.26000        4.9100813E-18
   18.45000        4.9100713E-18
   18.64000        4.9100635E-18
   18.83000        4.9100593E-18
   19.02000        4.9100606E-18
   19.21000        4.9100676E-18
   19.40000        4.9100759E-18
   19.59000        4.9100837E-18
   19.78000        4.9100883E-18
   19.97000        4.9100879E-18
   20.16000        4.9100833E-18
   20.35000        4.9100750E-18
   20.54000        4.9100664E-18
   20.73000        4.9100589E-18
   20.92000        4.9100544E-18
   21.11000        4.9100556E-18
   21.30000        4.9100622E-18
   21.49000        4.9100730E-18
   21.68000        4.9100846E-18
   21.87000        4.9100945E-18
   22.06000        4.9101007E-18
   22.25000        4.9101015E-18
   22.44000        4.9100970E-18
   22.63000        4.9100887E-18
   22.82000        4.9100796E-18
   23.01000        4.9100713E-18
   23.20000        4.9100659E-18
   23.39000        4.9100643E-18
   23.58000        4.9100668E-18
   23.77000        4.9100709E-18
   23.96000        4.9100755E-18
   24.15000        4.9100779E-18
   24.34000        4.9100771E-18
   24.53000        4.9100717E-18
   24.72000        4.9100647E-18
   24.91000        4.9100573E-18
   25.10000        4.9100519E-18
   25.29000        4.9100506E-18
   25.48000        4.9100544E-18
   25.67000        4.9100618E-18
   25.86000        4.9100734E-18
   26.05000        4.9100850E-18
   26.24000        4.9100949E-18
   26.43000        4.9100994E-18
   26.62000        4.9100982E-18
   26.81000        4.9100916E-18
   27.00000        4.9100817E-18
   27.19000        4.9100713E-18
   27.38000        4.9100631E-18
   27.57000        4.9100589E-18
   27.76000        4.9100597E-18
   27.95000        4.9100643E-18
   28.14000        4.9100717E-18
   28.33000        4.9100796E-18
   28.52000        4.9100846E-18
   28.71000        4.9100846E-18
   28.90000        4.9100792E-18
   29.09000        4.9100705E-18
   29.28000        4.9100593E-18
   29.47000        4.9100506E-18
   29.66000        4.9100469E-18
   29.85000        4.9100486E-18
   30.04000        4.9100564E-18
   30.23000        4.9100676E-18
   30.42000        4.9100808E-18
   30.61000        4.9100924E-18
   30.80000        4.9100999E-18
   30.99000        4.9101015E-18
   31.18000        4.9100974E-18
   31.37000        4.9100895E-18
   31.56000        4.9100804E-18
   31.75000        4.9100726E-18
   31.94000        4.9100684E-18
   32.13000        4.9100688E-18
   32.32000        4.9100726E-18
   32.51000        4.9100775E-18
   32.70000        4.9100821E-18
   32.89000        4.9100850E-18
   33.08000        4.9100850E-18
   33.27000        4.9100825E-18
   33.46000        4.9100775E-18
   33.65000        4.9100717E-18
   33.84000        4.9100668E-18
   34.03000        4.9100635E-18
   34.22000        4.9100631E-18
   34.41000        4.9100651E-18
   34.60000        4.9100688E-18
   34.79000        4.9100734E-18
   34.98000        4.9100771E-18
   35.17000        4.9100796E-18
   35.36000        4.9100800E-18
   35.55000        4.9100779E-18
   35.74000        4.9100742E-18
   35.93000        4.9100697E-18
   36.12000        4.9100659E-18
   36.31000        4.9100651E-18
   36.50000        4.9100672E-18
   36.69000        4.9100726E-18
   36.88000        4.9100800E-18
   37.07000        4.9100875E-18
   37.26000        4.9100937E-18
   37.45000        4.9100966E-18
   37.64000        4.9100945E-18
   37.83000        4.9100883E-18
   38.02000        4.9100792E-18
   38.21000        4.9100684E-18
   38.40000        4.9100589E-18
   38.59000        4.9100531E-18
   38.78000        4.9100527E-18
   38.97000        4.9100573E-18
   39.16000        4.9100647E-18
   39.35000        4.9100734E-18
   39.54000        4.9100792E-18
   39.73000        4.9100813E-18
   39.92000        4.9100788E-18
   40.11000        4.9100713E-18
   40.30000        4.9100614E-18
   40.49000        4.9100515E-18
   40.68000        4.9100457E-18
   40.87000        4.9100444E-18
   41.06000        4.9100506E-18
   41.25000        4.9100610E-18
   41.44000        4.9100742E-18
   41.63000        4.9100879E-18
   41.82000        4.9100978E-18
   42.01000        4.9101028E-18
   42.20000        4.9101019E-18
   42.39000        4.9100961E-18
   42.58000        4.9100879E-18
   42.77000        4.9100800E-18
   42.96000        4.9100746E-18
   43.15000        4.9100730E-18
   43.34000        4.9100755E-18
   43.53000        4.9100808E-18
   43.72000        4.9100870E-18
   43.91000        4.9100912E-18
   44.10000        4.9100916E-18
   44.29000        4.9100870E-18
   44.48000        4.9100792E-18
   44.67000        4.9100705E-18
   44.86000        4.9100635E-18
   45.05000        4.9100606E-18
   45.24000        4.9100622E-18
   45.43000        4.9100680E-18
   45.62000        4.9100767E-18
   45.81000        4.9100858E-18
   46.00000        4.9100932E-18
   46.19000        4.9100953E-18
   46.38000        4.9100924E-18
   46.57000        4.9100846E-18
   46.76000        4.9100746E-18
   46.95000        4.9100655E-18
   47.14000        4.9100581E-18
   47.33000        4.9100556E-18
   47.52000        4.9100577E-18
   47.71000        4.9100635E-18
   47.90000        4.9100717E-18
   48.09000        4.9100796E-18
   48.28000        4.9100846E-18
   48.47000        4.9100854E-18
   48.66000        4.9100813E-18
   48.85000        4.9100738E-18
   49.04000        4.9100655E-18
   49.23000        4.9100589E-18
   49.42000        4.9100560E-18
   49.61000        4.9100577E-18
   49.80000        4.9100631E-18
   49.99000        4.9100717E-18
   50.18000        4.9100813E-18
   50.37000        4.9100899E-18
   50.56000        4.9100949E-18
   50.75000        4.9100961E-18
   50.94000        4.9100912E-18
   51.13000        4.9100829E-18
   51.32000        4.9100726E-18
   51.51000        4.9100635E-18
   51.70000        4.9100581E-18
   51.89000        4.9100573E-18
   52.08000        4.9100610E-18
   52.27000        4.9100668E-18
   52.46000        4.9100730E-18
   52.65000        4.9100767E-18
   52.84000        4.9100771E-18
   53.03000        4.9100726E-18
   53.22000        4.9100647E-18
   53.41000        4.9100560E-18
   53.60000        4.9100486E-18
   53.79000        4.9100457E-18
   53.98000        4.9100494E-18
   54.17000        4.9100585E-18
   54.36000        4.9100709E-18
   54.55000        4.9100833E-18
   54.74000        4.9100928E-18
   54.93000        4.9100961E-18
   55.12000        4.9100920E-18
   55.31000        4.9100825E-18
   55.50000        4.9100697E-18
   55.69000        4.9100568E-18
   55.88000        4.9100477E-18
   56.07000        4.9100461E-18
   56.26000        4.9100523E-18
   56.45000        4.9100651E-18
   56.64000        4.9100804E-18
   56.83000        4.9100937E-18
   57.02000        4.9101007E-18
   57.21000        4.9100999E-18
   57.40000        4.9100916E-18
   57.59000        4.9100779E-18
   57.78000        4.9100626E-18
   57.97000        4.9100506E-18
   58.16000        4.9100436E-18
   58.35000        4.9100449E-18
   58.54000        4.9100535E-18
   58.73000        4.9100672E-18
   58.92000        4.9100813E-18
   59.11000        4.9100920E-18
   59.30000        4.9100966E-18
   59.49000        4.9100941E-18
   59.68000        4.9100854E-18
   59.87000        4.9100742E-18
   60.06000        4.9100639E-18
   60.25000        4.9100573E-18
   60.44000        4.9100564E-18
   60.63000        4.9100635E-18
   60.82000        4.9100763E-18
   61.01000        4.9100912E-18
   61.20000        4.9101048E-18
   61.39000        4.9101131E-18
   61.58000        4.9101148E-18
   61.77000        4.9101098E-18
   61.96000        4.9101007E-18
   62.15000        4.9100895E-18
   62.34000        4.9100804E-18
   62.53000        4.9100750E-18
   62.72000        4.9100746E-18
   62.91000        4.9100788E-18
   63.10000        4.9100858E-18
   63.29000        4.9100937E-18
   63.48000        4.9100982E-18
   63.67000        4.9100966E-18
   63.86000        4.9100891E-18
   64.05000        4.9100767E-18
   64.24000        4.9100626E-18
   64.43000        4.9100506E-18
   64.62000        4.9100424E-18
   64.81000        4.9100403E-18
   65.00000        4.9100444E-18
   65.19000        4.9100544E-18
   65.38000        4.9100668E-18
   65.57000        4.9100779E-18
   65.76000        4.9100870E-18
   65.95000        4.9100908E-18
   66.14000        4.9100895E-18
   66.33000        4.9100854E-18
   66.52000        4.9100796E-18
   66.71000        4.9100750E-18
   66.90000        4.9100742E-18
   67.09000        4.9100779E-18
   67.28000        4.9100846E-18
   67.47000        4.9100928E-18
   67.66000        4.9100999E-18
   67.85000        4.9101028E-18
   68.04000        4.9101007E-18
   68.23000        4.9100924E-18
   68.42000        4.9100792E-18
   68.61000        4.9100643E-18
   68.80000        4.9100506E-18
   68.99000        4.9100411E-18
   69.18000        4.9100382E-18
   69.37000        4.9100407E-18
   69.56000        4.9100486E-18
   69.75000        4.9100577E-18
   69.94000        4.9100655E-18
   70.13000        4.9100705E-18
   70.32000        4.9100709E-18
   70.51000        4.9100668E-18
   70.70000        4.9100597E-18
   70.89000        4.9100531E-18
   71.08000        4.9100502E-18
   71.27000        4.9100531E-18
   71.46000        4.9100622E-18
   71.65000        4.9100746E-18
   71.84000        4.9100887E-18
   72.03000        4.9100994E-18
   72.22000        4.9101061E-18
   72.41000        4.9101052E-18
   72.60000        4.9100982E-18
   72.79000        4.9100870E-18
   72.98000        4.9100742E-18
   73.17000        4.9100639E-18
   73.36000        4.9100581E-18
   73.55000        4.9100577E-18
   73.74000        4.9100618E-18
   73.93000        4.9100680E-18
   74.12000        4.9100734E-18
   74.31000        4.9100742E-18
   74.50000        4.9100701E-18
   74.69000        4.9100602E-18
   74.88000        4.9100486E-18
   75.07000        4.9100374E-18
   75.26000        4.9100304E-18
   75.45000        4.9100300E-18
   75.64000        4.9100378E-18
   75.83000        4.9100523E-18
   76.02000        4.9100705E-18
   76.21000        4.9100891E-18
   76.40000        4.9101032E-18
   76.59000        4.9101110E-18
   76.78000        4.9101110E-18
   76.97000        4.9101048E-18
   77.16000        4.9100953E-18
   77.35000        4.9100841E-18
   77.54000        4.9100763E-18
   77.73000        4.9100726E-18
   77.92000        4.9100738E-18
   78.11000        4.9100796E-18
   78.30000        4.9100870E-18
   78.49000        4.9100932E-18
   78.68000        4.9100949E-18
   78.87000        4.9100916E-18
   79.06000        4.9100837E-18
   79.25000        4.9100734E-18
   79.44000        4.9100626E-18
   79.63000        4.9100552E-18
   79.82000        4.9100527E-18
   80.01000        4.9100548E-18
   80.20000        4.9100622E-18
   80.39000        4.9100730E-18
   80.58000        4.9100846E-18
   80.77000        4.9100928E-18
   80.96000        4.9100961E-18
   81.15000        4.9100945E-18
   81.34000        4.9100887E-18
   81.53000        4.9100804E-18
   81.72000        4.9100730E-18
   81.91000        4.9100680E-18
   82.10000        4.9100672E-18
   82.29000        4.9100709E-18
   82.48000        4.9100767E-18
   82.67000        4.9100829E-18
   82.86000        4.9100879E-18
   83.05000        4.9100899E-18
   83.24000        4.9100887E-18
   83.43000        4.9100841E-18
   83.62000        4.9100784E-18
   83.81000        4.9100730E-18
   84.00000        4.9100693E-18
   84.19000        4.9100680E-18
   84.38000        4.9100693E-18
   84.57000        4.9100730E-18
   84.76000        4.9100767E-18
   84.95000        4.9100796E-18
   85.14000        4.9100804E-18
   85.33000        4.9100796E-18
   85.52000        4.9100771E-18
   85.71000        4.9100734E-18
   85.90000        4.9100709E-18
   86.09000        4.9100701E-18
   86.28000        4.9100705E-18
   86.47000        4.9100742E-18
   86.66000        4.9100784E-18
   86.85000        4.9100833E-18
   87.04000        4.9100854E-18
   87.23000        4.9100850E-18
   87.42000        4.9100825E-18
   87.61000        4.9100779E-18
   87.80000        4.9100726E-18
   87.99000        4.9100676E-18
   88.18000        4.9100651E-18
   88.37000        4.9100651E-18
   88.56000        4.9100684E-18
   88.75000        4.9100742E-18
   88.94000        4.9100808E-18
   89.13000        4.9100870E-18
   89.32000        4.9100908E-18
   89.51000        4.9100903E-18
   89.70000        4.9100866E-18
   89.89000        4.9100800E-18
   90.08000        4.9100726E-18
   90.27000        4.9100664E-18
   90.46000        4.9100618E-18
   90.65000        4.9100610E-18
   90.84000        4.9100635E-18
   91.03000        4.9100688E-18
   91.22000        4.9100750E-18
   91.41000        4.9100796E-18
   91.60000        4.9100813E-18
   91.79000        4.9100800E-18
   91.98000        4.9100767E-18
   92.17000        4.9100726E-18
   92.36000        4.9100697E-18
   92.55000        4.9100697E-18
   92.74000        4.9100730E-18
   92.93000        4.9100804E-18
   93.12000        4.9100895E-18
   93.31000        4.9100982E-18
   93.50000        4.9101057E-18
   93.69000        4.9101094E-18
   93.88000        4.9101085E-18
   94.07000        4.9101028E-18
   94.26000        4.9100932E-18
   94.45000        4.9100813E-18
   94.64000        4.9100697E-18
   94.83000        4.9100593E-18
   95.02000        4.9100523E-18
   95.21000        4.9100494E-18
   95.40000        4.9100502E-18
   95.59000        4.9100535E-18
   95.78000        4.9100585E-18
   95.97000        4.9100635E-18
   96.16000        4.9100659E-18
   96.35000        4.9100655E-18
   96.54000        4.9100631E-18
   96.73000        4.9100593E-18
   96.92000        4.9100556E-18
   97.11000        4.9100548E-18
   97.30000        4.9100568E-18
   97.49000        4.9100622E-18
   97.68000        4.9100705E-18
   97.87000        4.9100792E-18
   98.06000        4.9100875E-18
   98.25000        4.9100932E-18
   98.44000        4.9100966E-18
   98.63000        4.9100966E-18
   98.82000        4.9100945E-18
   99.01000        4.9100908E-18
   99.20000        4.9100875E-18
   99.39000        4.9100854E-18
   99.58000        4.9100846E-18
   99.77000        4.9100846E-18
   99.96000        4.9100850E-18
   100.1500        4.9100854E-18
   100.3400        4.9100846E-18
   100.5300        4.9100817E-18
   100.7200        4.9100759E-18
   100.9100        4.9100684E-18
   101.1000        4.9100589E-18
   101.2900        4.9100482E-18
   101.4800        4.9100370E-18
   101.6700        4.9100275E-18
   101.8600        4.9100213E-18
   102.0500        4.9100196E-18
   102.2400        4.9100205E-18
   102.4300        4.9100229E-18
   102.6200        4.9100267E-18
   102.8100        4.9100312E-18
   103.0000        4.9100358E-18
   103.1900        4.9100407E-18
   103.3800        4.9100465E-18
   103.5700        4.9100531E-18
   103.7600        4.9100606E-18
   103.9500        4.9100684E-18
   104.1400        4.9100767E-18
   104.3300        4.9100850E-18
   104.5200        4.9100928E-18
   104.7100        4.9101003E-18
   104.9000        4.9101073E-18
   105.0900        4.9101135E-18
   105.2800        4.9101193E-18
   105.4700        4.9101234E-18
   105.6600        4.9101243E-18
   105.8500        4.9101201E-18
   106.0400        4.9101114E-18
   106.2300        4.9100999E-18
   106.4200        4.9100875E-18
   106.6100        4.9100767E-18
   106.8000        4.9100688E-18
   106.9900        4.9100631E-18
   107.1800        4.9100593E-18
   107.3700        4.9100560E-18
   107.5600        4.9100531E-18
   107.7500        4.9100502E-18
   107.9400        4.9100473E-18
   108.1300        4.9100473E-18
   108.3200        4.9100502E-18
   108.5100        4.9100560E-18
   108.7000        4.9100659E-18
   108.8900        4.9100788E-18
   109.0800        4.9100941E-18
   109.2700        4.9101123E-18
   109.4600        4.9101334E-18
   109.6500        4.9101582E-18
   109.8400        4.9101859E-18
   110.0300        4.9102140E-18
   110.2200        4.9102397E-18
   110.4100        4.9102599E-18
   110.6000        4.9102723E-18
   110.7900        4.9102761E-18
   110.9800        4.9102740E-18
   111.1700        4.9102670E-18
   111.3600        4.9102558E-18
   111.5500        4.9102388E-18
   111.7400        4.9102128E-18
   111.9300        4.9101739E-18
   112.1200        4.9101185E-18
   112.3100        4.9100461E-18
   112.5000        4.9099584E-18
   112.6900        4.9098608E-18
   112.8800        4.9097595E-18
   113.0700        4.9096598E-18
   113.2600        4.9095659E-18
   113.4500        4.9094795E-18
   113.6400        4.9093997E-18
   113.8300        4.9093281E-18
   114.0200        4.9092669E-18
   114.2100        4.9092222E-18
   114.4000        4.9092020E-18
   114.5900        4.9092140E-18
   114.7800        4.9092640E-18
   114.9700        4.9093550E-18
   115.1600        4.9094865E-18
   115.3500        4.9096569E-18
   115.5400        4.9098637E-18
   115.7300        4.9101065E-18
   115.9200        4.9103823E-18
   116.1100        4.9106892E-18
   116.3000        4.9110184E-18
   116.4900        4.9113584E-18
   116.6800        4.9116938E-18
   116.8700        4.9120094E-18
   117.0600        4.9122915E-18
   117.2500        4.9125305E-18
   117.4400        4.9127183E-18
   117.6300        4.9128486E-18
   117.8200        4.9129152E-18
   118.0100        4.9129065E-18
   118.2000        4.9128097E-18
   118.3900        4.9126099E-18
   118.5800        4.9122948E-18
   118.7700        4.9118597E-18
   118.9600        4.9113084E-18
   119.1500        4.9106499E-18
   119.3400        4.9099005E-18
   119.5300        4.9090766E-18
   119.7200        4.9081965E-18
   119.9100        4.9072788E-18
   120.1000        4.9063453E-18
   120.2900        4.9054213E-18
   120.4800        4.9045379E-18
   120.6700        4.9037285E-18
   120.8600        4.9030275E-18
   121.0500        4.9024650E-18
   121.2400        4.9020675E-18
   121.4300        4.9018607E-18
   121.6200        4.9018665E-18
   121.8100        4.9021097E-18
   122.0000        4.9026139E-18
   122.1900        4.9033985E-18
   122.3800        4.9044788E-18
   122.5700        4.9058527E-18
   122.7600        4.9075033E-18
   122.9500        4.9093972E-18
   123.1400        4.9114908E-18
   123.3300        4.9137370E-18
   123.5200        4.9160878E-18
   123.7100        4.9184978E-18
   123.9000        4.9209177E-18
   124.0900        4.9232913E-18
   124.2800        4.9255479E-18
   124.4700        4.9276042E-18
   124.6600        4.9293682E-18
   124.8500        4.9307463E-18
   125.0400        4.9316533E-18
   125.2300        4.9320181E-18
   125.4200        4.9317832E-18
   125.6100        4.9309076E-18
   125.8000        4.9293612E-18
   125.9900        4.9271237E-18
   126.1800        4.9241892E-18
   126.3700        4.9205695E-18
   126.5600        4.9163037E-18
   126.7500        4.9114569E-18
   126.9400        4.9061207E-18
   127.1300        4.9004086E-18
   127.3200        4.8944467E-18
   127.5100        4.8883690E-18
   127.7000        4.8823161E-18
   127.8900        4.8764427E-18
   128.0800        4.8709205E-18
   128.2700        4.8659445E-18
   128.4600        4.8617288E-18
   128.6500        4.8584925E-18
   128.8400        4.8564452E-18
   129.0300        4.8557694E-18
   129.2200        4.8566044E-18
   129.4100        4.8590434E-18
   129.6000        4.8631313E-18
   129.7900        4.8688703E-18
   129.9800        4.8762231E-18
   130.1700        4.8851161E-18
   130.3600        4.8954352E-18
   130.5500        4.9070232E-18
   130.7400        4.9196790E-18
   130.9300        4.9331509E-18
   131.1200        4.9471418E-18
   131.3100        4.9613114E-18
   131.5000        4.9752817E-18
   131.6900        4.9886365E-18
   131.8800        5.0009301E-18
   132.0700        5.0116971E-18
   132.2600        5.0204710E-18
   132.4500        5.0268138E-18
   132.6400        5.0303413E-18
   132.8300        5.0307516E-18
   133.0200        5.0278358E-18
   133.2100        5.0214818E-18
   133.4000        5.0116599E-18
   133.5900        4.9984138E-18
   133.7800        4.9818524E-18
   133.9700        4.9621560E-18
   134.1600        4.9395913E-18
   134.3500        4.9145340E-18
   134.5400        4.8874856E-18
   134.7300        4.8590765E-18
   134.9200        4.8300511E-18
   135.1100        4.8012375E-18
   135.3000        4.7735084E-18
   135.4900        4.7477417E-18
   135.6800        4.7247903E-18
   135.8700        4.7054562E-18
   136.0600        4.6904751E-18
   136.2500        4.6804940E-18
   136.4400        4.6760520E-18
   136.6300        4.6775612E-18
   136.8200        4.6852854E-18
   137.0100        4.6993318E-18
   137.2000        4.7196552E-18
   137.3900        4.7460625E-18
   137.5800        4.7782175E-18
   137.7700        4.8156313E-18
   137.9600        4.8576508E-18
   138.1500        4.9034299E-18
   138.3400        4.9519172E-18
   138.5300        5.0018636E-18
   138.7200        5.0518633E-18
   138.9100        5.1004250E-18
   139.1000        5.1460639E-18
   139.2900        5.1873869E-18
   139.4800        5.2231666E-18
   139.6700        5.2523702E-18
   139.8600        5.2741619E-18
   140.0500        5.2878753E-18
   140.2400        5.2929902E-18
   140.4300        5.2891120E-18
   140.6200        5.2759788E-18
   140.8100        5.2534952E-18
   141.0000        5.2217766E-18
   141.1900        5.1811930E-18
   141.3800        5.1324100E-18
   141.5700        5.0764054E-18
   141.7600        5.0144566E-18
   141.9500        4.9481022E-18
   142.1400        4.8790698E-18
   142.3300        4.8091888E-18
   142.5200        4.7402846E-18