  -30.00000        2.2734158E-18
  -29.81000        2.2734158E-18
  -29.62000        2.2734158E-18
  -29.43000        2.2734155E-18
  -29.24000        2.2734158E-18
  -29.05000        2.2734158E-18
  -28.86000        2.2734160E-18
  -28.67000        2.2734162E-18
  -28.48000        2.2734166E-18
  -28.29000        2.2734164E-18
  -28.10000        2.2734162E-18
  -27.91000        2.2734160E-18
  -27.72000        2.2734158E-18
  -27.53000        2.2734155E-18
  -27.34000        2.2734153E-18
  -27.15000        2.2734153E-18
  -26.96000        2.2734151E-18
  -26.77000        2.2734153E-18
  -26.58000        2.2734160E-18
  -26.39000        2.2734166E-18
  -26.20000        2.2734170E-18
  -26.01000        2.2734170E-18
  -25.82000        2.2734166E-18
  -25.63000        2.2734160E-18
  -25.44000        2.2734153E-18
  -25.25000        2.2734147E-18
  -25.06000        2.2734145E-18
  -24.87000        2.2734143E-18
  -24.68000        2.2734147E-18
  -24.49000        2.2734153E-18
  -24.30000        2.2734155E-18
  -24.11000        2.2734162E-18
  -23.92000        2.2734166E-18
  -23.73000        2.2734170E-18
  -23.54000        2.2734168E-18
  -23.35000        2.2734160E-18
  -23.16000        2.2734160E-18
  -22.97000        2.2734160E-18
  -22.78000        2.2734155E-18
  -22.59000        2.2734149E-18
  -22.40000        2.2734153E-18
  -22.21000        2.2734164E-18
  -22.02000        2.2734174E-18
  -21.83000        2.2734182E-18
  -21.64000        2.2734186E-18
  -21.45000        2.2734182E-18
  -21.26000        2.2734172E-18
  -21.07000        2.2734162E-18
  -20.88000        2.2734149E-18
  -20.69000        2.2734143E-18
  -20.50000        2.2734139E-18
  -20.31000        2.2734141E-18
  -20.12000        2.2734147E-18
  -19.93000        2.2734166E-18
  -19.74000        2.2734178E-18
  -19.55000        2.2734189E-18
  -19.36000        2.2734195E-18
  -19.17000        2.2734186E-18
  -18.98000        2.2734176E-18
  -18.79000        2.2734160E-18
  -18.60000        2.2734145E-18
  -18.41000        2.2734135E-18
  -18.22000        2.2734126E-18
  -18.03000        2.2734120E-18
  -17.84000        2.2734122E-18
  -17.65000        2.2734135E-18
  -17.46000        2.2734147E-18
  -17.27000        2.2734162E-18
  -17.08000        2.2734168E-18
  -16.89000        2.2734172E-18
  -16.70000        2.2734170E-18
  -16.51000        2.2734155E-18
  -16.32000        2.2734141E-18
  -16.13000        2.2734131E-18
  -15.94000        2.2734120E-18
  -15.75000        2.2734116E-18
  -15.56000        2.2734122E-18
  -15.37000        2.2734131E-18
  -15.18000        2.2734143E-18
  -14.99000        2.2734160E-18
  -14.80000        2.2734170E-18
  -14.61000        2.2734174E-18
  -14.42000        2.2734170E-18
  -14.23000        2.2734164E-18
  -14.04000        2.2734151E-18
  -13.85000        2.2734133E-18
  -13.66000        2.2734124E-18
  -13.47000        2.2734126E-18
  -13.28000        2.2734145E-18
  -13.09000        2.2734172E-18
  -12.90000        2.2734199E-18
  -12.71000        2.2734224E-18
  -12.52000        2.2734238E-18
  -12.33000        2.2734232E-18
  -12.14000        2.2734220E-18
  -11.95000        2.2734201E-18
  -11.76000        2.2734184E-18
  -11.57000        2.2734164E-18
  -11.38000        2.2734151E-18
  -11.19000        2.2734151E-18
  -11.00000        2.2734162E-18
  -10.81000        2.2734174E-18
  -10.62000        2.2734193E-18
  -10.43000        2.2734197E-18
  -10.24000        2.2734193E-18
  -10.05000        2.2734174E-18
  -9.860000        2.2734143E-18
  -9.670000        2.2734110E-18
  -9.480000        2.2734083E-18
  -9.290000        2.2734073E-18
  -9.100000        2.2734085E-18
  -8.910000        2.2734122E-18
  -8.720000        2.2734164E-18
  -8.530000        2.2734209E-18
  -8.340000        2.2734246E-18
  -8.150000        2.2734255E-18
  -7.960000        2.2734238E-18
  -7.770000        2.2734197E-18
  -7.580000        2.2734147E-18
  -7.390000        2.2734098E-18
  -7.200000        2.2734069E-18
  -7.010000        2.2734067E-18
  -6.820000        2.2734089E-18
  -6.630000        2.2734124E-18
  -6.440000        2.2734168E-18
  -6.250000        2.2734203E-18
  -6.060000        2.2734213E-18
  -5.870000        2.2734199E-18
  -5.680000        2.2734168E-18
  -5.490000        2.2734120E-18
  -5.300000        2.2734077E-18
  -5.110000        2.2734046E-18
  -4.920000        2.2734042E-18
  -4.730000        2.2734056E-18
  -4.540000        2.2734089E-18
  -4.350000        2.2734135E-18
  -4.160000        2.2734174E-18
  -3.970000        2.2734199E-18
  -3.780000        2.2734205E-18
  -3.590000        2.2734195E-18
  -3.400000        2.2734172E-18
  -3.210000        2.2734155E-18
  -3.020000        2.2734153E-18
  -2.830000        2.2734170E-18
  -2.640000        2.2734205E-18
  -2.450000        2.2734253E-18
  -2.260000        2.2734298E-18
  -2.070000        2.2734319E-18
  -1.880000        2.2734306E-18
  -1.690000        2.2734255E-18
  -1.500000        2.2734178E-18
  -1.310000        2.2734098E-18
  -1.120000        2.2734036E-18
 -0.9300000        2.2733998E-18
 -0.7400000        2.2733998E-18
 -0.5500000        2.2734027E-18
 -0.3600000        2.2734075E-18
 -0.1700000        2.2734122E-18
  2.0000000E-02    2.2734151E-18
  0.2100000        2.2734164E-18
  0.4000000        2.2734147E-18
  0.5900000        2.2734122E-18
  0.7800000        2.2734100E-18
  0.9700000        2.2734098E-18
   1.160000        2.2734120E-18
   1.350000        2.2734158E-18
   1.540000        2.2734209E-18
   1.730000        2.2734251E-18
   1.920000        2.2734277E-18
   2.110000        2.2734280E-18
   2.300000        2.2734253E-18
   2.490000        2.2734209E-18
   2.680000        2.2734170E-18
   2.870000        2.2734133E-18
   3.060000        2.2734112E-18
   3.250000        2.2734114E-18
   3.440000        2.2734129E-18
   3.630000        2.2734149E-18
   3.820000        2.2734172E-18
   4.010000        2.2734182E-18
   4.200000        2.2734182E-18
   4.390000        2.2734172E-18
   4.580000        2.2734166E-18
   4.770000        2.2734166E-18
   4.960000        2.2734176E-18
   5.150000        2.2734186E-18
   5.340000        2.2734197E-18
   5.530000        2.2734205E-18
   5.720000        2.2734205E-18
   5.910000        2.2734197E-18
   6.100000        2.2734176E-18
   6.290000        2.2734145E-18
   6.480000        2.2734114E-18
   6.670000        2.2734083E-18
   6.860000        2.2734060E-18
   7.050000        2.2734046E-18
   7.240000        2.2734046E-18
   7.430000        2.2734058E-18
   7.620000        2.2734085E-18
   7.810000        2.2734122E-18
   8.000000        2.2734166E-18
   8.190000        2.2734201E-18
   8.380000        2.2734220E-18
   8.570000        2.2734228E-18
   8.760000        2.2734224E-18
   8.950000        2.2734209E-18
   9.140000        2.2734182E-18
   9.330000        2.2734160E-18
   9.520000        2.2734139E-18
   9.710000        2.2734137E-18
   9.900000        2.2734149E-18
   10.09000        2.2734186E-18
   10.28000        2.2734238E-18
   10.47000        2.2734286E-18
   10.66000        2.2734308E-18
   10.85000        2.2734300E-18
   11.04000        2.2734263E-18
   11.23000        2.2734207E-18
   11.42000        2.2734149E-18
   11.61000        2.2734112E-18
   11.80000        2.2734093E-18
   11.99000        2.2734102E-18
   12.18000        2.2734131E-18
   12.37000        2.2734162E-18
   12.56000        2.2734189E-18
   12.75000        2.2734193E-18
   12.94000        2.2734174E-18
   13.13000        2.2734135E-18
   13.32000        2.2734089E-18
   13.51000        2.2734050E-18
   13.70000        2.2734033E-18
   13.89000        2.2734040E-18
   14.08000        2.2734064E-18
   14.27000        2.2734100E-18
   14.46000        2.2734143E-18
   14.65000        2.2734176E-18
   14.84000        2.2734203E-18
   15.03000        2.2734215E-18
   15.22000        2.2734226E-18
   15.41000        2.2734234E-18
   15.60000        2.2734246E-18
   15.79000        2.2734257E-18
   15.98000        2.2734263E-18
   16.17000        2.2734269E-18
   16.36000        2.2734261E-18
   16.55000        2.2734240E-18
   16.74000        2.2734205E-18
   16.93000        2.2734164E-18
   17.12000        2.2734124E-18
   17.31000        2.2734087E-18
   17.50000        2.2734058E-18
   17.69000        2.2734033E-18
   17.88000        2.2734019E-18
   18.07000        2.2734000E-18
   18.26000        2.2733992E-18
   18.45000        2.2733990E-18
   18.64000        2.2734004E-18
   18.83000        2.2734042E-18
   19.02000        2.2734100E-18
   19.21000        2.2734168E-18
   19.40000        2.2734244E-18
   19.59000        2.2734306E-18
   19.78000        2.2734342E-18
   19.97000        2.2734348E-18
   20.16000        2.2734331E-18
   20.35000        2.2734300E-18
   20.54000        2.2734267E-18
   20.73000        2.2734248E-18
   20.92000        2.2734253E-18
   21.11000        2.2734267E-18
   21.30000        2.2734284E-18
   21.49000        2.2734294E-18
   21.68000        2.2734273E-18
   21.87000        2.2734217E-18
   22.06000        2.2734114E-18
   22.25000        2.2733990E-18
   22.44000        2.2733864E-18
   22.63000        2.2733775E-18
   22.82000        2.2733738E-18
   23.01000        2.2733769E-18
   23.20000        2.2733858E-18
   23.39000        2.2733986E-18
   23.58000        2.2734116E-18
   23.77000        2.2734220E-18
   23.96000        2.2734273E-18
   24.15000        2.2734267E-18
   24.34000        2.2734220E-18
   24.53000        2.2734153E-18
   24.72000        2.2734106E-18
   24.91000        2.2734098E-18
   25.10000        2.2734137E-18
   25.29000        2.2734217E-18
   25.48000        2.2734308E-18
   25.67000        2.2734373E-18
   25.86000        2.2734385E-18
   26.05000        2.2734337E-18
   26.24000        2.2734238E-18
   26.43000        2.2734120E-18
   26.62000        2.2734021E-18
   26.81000        2.2733973E-18
   27.00000        2.2733988E-18
   27.19000        2.2734064E-18
   27.38000        2.2734180E-18
   27.57000        2.2734294E-18
   27.76000        2.2734371E-18
   27.95000        2.2734387E-18
   28.14000        2.2734344E-18
   28.33000        2.2734263E-18
   28.52000        2.2734166E-18
   28.71000        2.2734095E-18
   28.90000        2.2734069E-18
   29.09000        2.2734091E-18
   29.28000        2.2734149E-18
   29.47000        2.2734217E-18
   29.66000        2.2734261E-18
   29.85000        2.2734263E-18
   30.04000        2.2734215E-18
   30.23000        2.2734129E-18
   30.42000        2.2734042E-18
   30.61000        2.2733976E-18
   30.80000        2.2733951E-18
   30.99000        2.2733978E-18
   31.18000        2.2734046E-18
   31.37000        2.2734135E-18
   31.56000        2.2734224E-18
   31.75000        2.2734288E-18
   31.94000        2.2734313E-18
   32.13000        2.2734292E-18
   32.32000        2.2734242E-18
   32.51000        2.2734180E-18
   32.70000        2.2734131E-18
   32.89000        2.2734112E-18
   33.08000        2.2734137E-18
   33.27000        2.2734191E-18
   33.46000        2.2734265E-18
   33.65000        2.2734335E-18
   33.84000        2.2734383E-18
   34.03000        2.2734383E-18
   34.22000        2.2734342E-18
   34.41000        2.2734267E-18
   34.60000        2.2734174E-18
   34.79000        2.2734093E-18
   34.98000        2.2734042E-18
   35.17000        2.2734031E-18
   35.36000        2.2734064E-18
   35.55000        2.2734129E-18
   35.74000        2.2734193E-18
   35.93000        2.2734228E-18
   36.12000        2.2734217E-18
   36.31000        2.2734155E-18
   36.50000        2.2734056E-18
   36.69000        2.2733940E-18
   36.88000        2.2733843E-18
   37.07000        2.2733791E-18
   37.26000        2.2733816E-18
   37.45000        2.2733911E-18
   37.64000        2.2734056E-18
   37.83000        2.2734213E-18
   38.02000        2.2734348E-18
   38.21000        2.2734422E-18
   38.40000        2.2734414E-18
   38.59000        2.2734339E-18
   38.78000        2.2734224E-18
   38.97000        2.2734095E-18
   39.16000        2.2733986E-18
   39.35000        2.2733928E-18
   39.54000        2.2733938E-18
   39.73000        2.2734004E-18
   39.92000        2.2734108E-18
   40.11000        2.2734211E-18
   40.30000        2.2734294E-18
   40.49000        2.2734335E-18
   40.68000        2.2734325E-18
   40.87000        2.2734284E-18
   41.06000        2.2734224E-18
   41.25000        2.2734168E-18
   41.44000        2.2734139E-18
   41.63000        2.2734139E-18
   41.82000        2.2734174E-18
   42.01000        2.2734232E-18
   42.20000        2.2734304E-18
   42.39000        2.2734368E-18
   42.58000        2.2734399E-18
   42.77000        2.2734385E-18
   42.96000        2.2734325E-18
   43.15000        2.2734226E-18
   43.34000        2.2734098E-18
   43.53000        2.2733959E-18
   43.72000        2.2733837E-18
   43.91000        2.2733750E-18
   44.10000        2.2733719E-18
   44.29000        2.2733756E-18
   44.48000        2.2733841E-18
   44.67000        2.2733961E-18
   44.86000        2.2734087E-18
   45.05000        2.2734193E-18
   45.24000        2.2734265E-18
   45.43000        2.2734315E-18
   45.62000        2.2734364E-18
   45.81000        2.2734447E-18
   46.00000        2.2734579E-18
   46.19000        2.2734794E-18
   46.38000        2.2735072E-18
   46.57000        2.2735390E-18
   46.76000        2.2735694E-18
   46.95000        2.2735921E-18
   47.14000        2.2736027E-18
   47.33000        2.2735975E-18
   47.52000        2.2735760E-18
   47.71000        2.2735398E-18
   47.90000        2.2734916E-18
   48.09000        2.2734339E-18
   48.28000        2.2733669E-18
   48.47000        2.2732900E-18
   48.66000        2.2732005E-18
   48.85000        2.2730960E-18
   49.04000        2.2729767E-18
   49.23000        2.2728444E-18
   49.42000        2.2727054E-18
   49.61000        2.2725695E-18
   49.80000        2.2724515E-18
   49.99000        2.2723656E-18
   50.18000        2.2723264E-18
   50.37000        2.2723435E-18
   50.56000        2.2724250E-18
   50.75000        2.2725745E-18
   50.94000        2.2727933E-18
   51.13000        2.2730828E-18
   51.32000        2.2734441E-18
   51.51000        2.2738767E-18
   51.70000        2.2743776E-18
   51.89000        2.2749413E-18
   52.08000        2.2755561E-18
   52.27000        2.2762027E-18
   52.46000        2.2768535E-18
   52.65000        2.2774722E-18
   52.84000        2.2780176E-18
   53.03000        2.2784434E-18
   53.22000        2.2787052E-18
   53.41000        2.2787622E-18
   53.60000        2.2785788E-18
   53.79000        2.2781232E-18
   53.98000        2.2773707E-18
   54.17000        2.2763026E-18
   54.36000        2.2749076E-18
   54.55000        2.2731850E-18
   54.74000        2.2711474E-18
   54.93000        2.2688239E-18
   55.12000        2.2662644E-18
   55.31000        2.2635419E-18
   55.50000        2.2607547E-18
   55.69000        2.2580225E-18
   55.88000        2.2554847E-18
   56.07000        2.2532929E-18
   56.26000        2.2516067E-18
   56.45000        2.2505858E-18
   56.64000        2.2503839E-18
   56.83000        2.2511425E-18
   57.02000        2.2529823E-18
   57.21000        2.2559988E-18
   57.40000        2.2602512E-18
   57.59000        2.2657573E-18
   57.78000        2.2724883E-18
   57.97000        2.2803589E-18
   58.16000        2.2892228E-18
   58.35000        2.2988693E-18
   58.54000        2.3090224E-18
   58.73000        2.3193435E-18
   58.92000        2.3294380E-18
   59.11000        2.3388641E-18
   59.30000        2.3471448E-18
   59.49000        2.3537815E-18
   59.68000        2.3582725E-18
   59.87000        2.3601305E-18
   60.06000        2.3589047E-18
   60.25000        2.3541995E-18
   60.44000        2.3456977E-18
   60.63000        2.3331818E-18
   60.82000        2.3165549E-18
   61.01000        2.2958601E-18
   61.20000        2.2712984E-18
   61.39000        2.2432421E-18
   61.58000        2.2122416E-18
   61.77000        2.1790295E-18
   61.96000        2.1445168E-18
   62.15000        2.1097808E-18
   62.34000        2.0760486E-18
   62.53000        2.0446728E-18
   62.72000        2.0170956E-18
   62.91000        1.9948089E-18
   63.10000        1.9793082E-18
   63.29000        1.9720428E-18
   63.48000        1.9743608E-18
   63.67000        1.9874478E-18
   63.86000        2.0122707E-18
   64.05000        2.0495143E-18
   64.24000        2.0995254E-18
   64.43000        2.1622576E-18
   64.62000        2.2372239E-18
   64.81000        2.3234627E-18
   65.00000        2.4195097E-18
   65.19000        2.5233864E-18
   65.38000        2.6326057E-18
   65.57000        2.7441963E-18
   65.76000        2.8547451E-18
   65.95000        2.9604625E-18
   66.14000        3.0572647E-18
   66.33000        3.1408757E-18
   66.52000        3.2069470E-18
   66.71000        3.2511896E-18
   66.90000        3.2695199E-18
   67.09000        3.2582092E-18
   67.28000        3.2140369E-18
   67.47000        3.1344403E-18
   67.66000        3.0176601E-18
   67.85000        2.8628756E-18
   68.04000        2.6703278E-18
   68.23000        2.4414265E-18
   68.42000        2.1788357E-18
   68.61000        1.8865382E-18
   68.80000        1.5698718E-18
   68.99000        1.2355346E-18
   69.18000        8.9155894E-19
   69.37000        5.4724574E-19
   69.56000        2.1305815E-19
   69.75000       -9.9537512E-20
   69.94000       -3.7827499E-19
   70.13000       -6.1035093E-19
   70.32000       -7.8274612E-19
   70.51000       -8.8260502E-19
   70.70000       -8.9767698E-19
   70.89000       -8.1681263E-19
   71.08000       -6.3050152E-19
   71.27000       -3.3143581E-19
   71.46000        8.4918207E-20
   71.65000        6.1977490E-19
   71.84000        1.2705328E-18
   72.03000        2.0303601E-18
   72.22000        2.8878953E-18
   72.41000        3.8270888E-18
   72.60000        4.8272114E-18
   72.79000        5.8630483E-18
   72.98000        6.9052905E-18
   73.17000        7.9211279E-18
   73.36000        8.8750450E-18
   73.55000        9.7298021E-18
   73.74000        1.0447580E-17
   73.93000        1.0991260E-17
   74.12000        1.1325794E-17
   74.31000        1.1419611E-17
   74.50000        1.1246027E-17
   74.69000        1.0784572E-17
   74.88000        1.0022210E-17
   75.07000        8.9543898E-18
   75.26000        7.5858658E-18
   75.45000        5.9312742E-18
   75.64000        4.0154159E-18
   75.83000        1.8732231E-18
   76.02000       -4.5059583E-19
   76.21000       -2.9022465E-18
   76.40000       -5.4198722E-18
   76.59000       -7.9348913E-18
   76.78000       -1.0373622E-17
   76.97000       -1.2659170E-17
   77.16000       -1.4713517E-17
   77.35000       -1.6459787E-17
   77.54000       -1.7824612E-17
   77.73000       -1.8740536E-17
   77.92000       -1.9148411E-17
   78.11000       -1.8999697E-17
   78.30000       -1.8258616E-17
   78.49000       -1.6904041E-17
   78.68000       -1.4931105E-17
   78.87000       -1.2352377E-17
   79.06000       -9.1985925E-18
   79.25000       -5.5188283E-18
   79.44000       -1.3800862E-18
   79.63000        3.1337601E-18
   79.82000        7.9236408E-18
   80.01000        1.2877576E-17
   80.20000        1.7873499E-17
   80.39000        2.2782536E-17
   80.58000        2.7472600E-17
   80.77000        3.1812172E-17
   80.96000        3.5674109E-17
   81.15000        3.8939279E-17
   81.34000        4.1499942E-17
   81.53000        4.3262651E-17
   81.72000        4.4150630E-17
   81.91000        4.4105535E-17
   82.10000        4.3088599E-17
   82.29000        4.1081134E-17
   82.48000        3.8084553E-17
   82.67000        3.4119943E-17
   82.86000        2.9227388E-17
   83.05000        2.3465183E-17
   83.24000        1.6909023E-17
   83.43000        9.6513738E-18
   83.62000        1.8009595E-18
   83.81000       -6.5175020E-18
   84.00000       -1.5163493E-17
   84.19000       -2.3980866E-17
   84.38000       -3.2798194E-17
   84.57000       -4.1429503E-17
   84.76000       -4.9675607E-17
   84.95000       -5.7326237E-17
   85.14000       -6.4163209E-17
   85.33000       -6.9964637E-17
   85.52000       -7.4510391E-17
   85.71000       -7.7588661E-17
   85.90000       -7.9003478E-17
   86.09000       -7.8583018E-17
   86.28000       -7.6188297E-17
   86.47000       -7.1721787E-17
   86.66000       -6.5135563E-17
   86.85000       -5.6438335E-17
   87.04000       -4.5701017E-17
   87.23000       -3.3060235E-17
   87.42000       -1.8719599E-17
   87.61000       -2.9483347E-18
   87.80000        1.3922646E-17
   87.99000        3.1507326E-17
   88.18000        4.9373514E-17
   88.37000        6.7053901E-17
   88.56000        8.4058762E-17
   88.75000        9.9889894E-17
   88.94000        1.1405536E-16
   89.13000        1.2608428E-16
   89.32000        1.3554155E-16
   89.51000        1.4204163E-16
   89.70000        1.4526151E-16
   89.89000        1.4495217E-16
   90.08000        1.4094857E-16
   90.27000        1.3317793E-16
   90.46000        1.2166618E-16
   90.65000        1.0654252E-16
   90.84000        8.8042041E-17
   91.03000        6.6506009E-17
   91.22000        4.2379821E-17
   91.41000        1.6208068E-17
   91.60000       -1.1373508E-17
   91.79000       -3.9649467E-17
   91.98000       -6.7840033E-17
   92.17000       -9.5120152E-17
   92.36000       -1.2064255E-16
   92.55000       -1.4356421E-16
   92.74000       -1.6307590E-16
   92.93000       -1.7843350E-16
   93.12000       -1.8899040E-16
   93.31000       -1.9422914E-16
   93.50000       -1.9379047E-16
   93.69000       -1.8749868E-16
   93.88000       -1.7538058E-16
   94.07000       -1.5767688E-16
   94.26000       -1.3484463E-16
   94.45000       -1.0754934E-16
   94.64000       -7.6646582E-17
   94.83000       -4.3153116E-17
   95.02000       -8.2085144E-18
   95.21000        2.6971276E-17
   95.40000        6.1146097E-17
   95.59000        9.3106907E-17
   95.78000        1.2173094E-16
   95.97000        1.4603375E-16
   96.16000        1.6521481E-16
   96.35000        1.7869382E-16
   96.54000        1.8613557E-16
   96.73000        1.8746131E-16
   96.92000        1.8284643E-16
   97.11000        1.7270394E-16
   97.30000        1.5765525E-16
   97.49000        1.3848989E-16
   97.68000        1.1611714E-16
   97.87000        9.1512718E-17
   98.06000        6.5664151E-17
   98.25000        3.9518815E-17
   98.44000        1.3937833E-17
   98.63000       -1.0340926E-17
   98.82000       -3.2728648E-17
   99.01000       -5.2798852E-17
   99.20000       -7.0287806E-17
   99.39000       -8.5082971E-17
   99.58000       -9.7201147E-17
   99.77000       -1.0675870E-16
   99.96000       -1.1393686E-16
   100.1500       -1.1894586E-16
   100.3400       -1.2199040E-16
   100.5300       -1.2324017E-16
   100.7200       -1.2280747E-16
   100.9100       -1.2073391E-16
   101.1000       -1.1698700E-16
   101.2900       -1.1146688E-16
   101.4800       -1.0402179E-16
   101.6700       -9.4471007E-17
   101.8600       -8.2632504E-17
   102.0500       -6.8352720E-17
   102.2400       -5.1535523E-17
   102.4300       -3.2167618E-17
   102.6200       -1.0338280E-17
   102.8100        1.3748230E-17
   103.0000        3.9768058E-17
   103.1900        6.7281012E-17
   103.3800        9.5740776E-17
   103.5700        1.2451072E-16
   103.7600        1.5288313E-16
   103.9500        1.8010050E-16
   104.1400        2.0537648E-16
   104.3300        2.2791539E-16
   104.5200        2.4692892E-16
   104.7100        2.6165033E-16
   104.9000        2.7134581E-16
   105.0900        2.7532462E-16
   105.2800        2.7294919E-16
   105.4700        2.6364782E-16
   105.6600        2.4693125E-16
   105.8500        2.2241568E-16
   106.0400        1.8985267E-16
   106.2300        1.4916639E-16
   106.4200        1.0049685E-16
   106.6100        4.4246341E-17
   106.8000       -1.8874678E-17
   106.9900       -8.7807604E-17
   107.1800       -1.6111709E-16
   107.3700       -2.3698023E-16
   107.5600       -3.1319872E-16
   107.7500       -3.8723824E-16
   107.9400       -4.5629797E-16
   108.1300       -5.1741050E-16
   108.3200       -5.6756941E-16
   108.5100       -6.0388081E-16
   108.7000       -6.2372965E-16
   108.8900       -6.2495229E-16
   109.0800       -6.0600258E-16
   109.2700       -5.6609928E-16
   109.4600       -5.0534219E-16
   109.6500       -4.2478440E-16
   109.8400       -3.2645274E-16
   110.0300       -2.1330897E-16
   110.2200       -8.9150277E-17
   110.4100        4.1548551E-17
   110.6000        1.7384404E-16
   110.7900        3.0257248E-16
   110.9800        4.2262270E-16
   111.1700        5.2921549E-16
   111.3600        6.1816999E-16
   111.5500        6.8613909E-16
   111.7400        7.3079620E-16
   111.9300        7.5095993E-16
   112.1200        7.4664652E-16
   112.3100        7.1904664E-16
   112.5000        6.7042668E-16
   112.6900        6.0396313E-16
   112.8800        5.2352073E-16
   113.0700        4.3339309E-16
   113.2600        3.3802364E-16
   113.4500        2.4172954E-16
   113.6400        1.4844881E-16
   113.8300        6.1529122E-17
   114.0200       -1.6426646E-17
   114.2100       -8.3648527E-17
   114.4000       -1.3921785E-16
   114.5900       -1.8301777E-16
   114.7800       -2.1562464E-16
   114.9700       -2.3815292E-16
   115.1600       -2.5207158E-16
   115.3500       -2.5900933E-16
   115.5400       -2.6056997E-16
   115.7300       -2.5817408E-16
   115.9200       -2.5294318E-16
   116.1100       -2.4563572E-16
   116.3000       -2.3663980E-16
   116.4900       -2.2602217E-16
   116.6800       -2.1362503E-16
   116.8700       -1.9920013E-16
   117.0600       -1.8256222E-16
   117.2500       -1.6374437E-16
   117.4400       -1.4313581E-16
   117.6300       -1.2158401E-16
   117.8200       -1.0044732E-16
   118.0100       -8.1587451E-17
   118.2000       -6.7298667E-17
   118.3900       -6.0174941E-17
   118.5800       -6.2923530E-17
   118.7700       -7.8137790E-17
   118.9600       -1.0804715E-16
   119.1500       -1.5426349E-16
   119.3400       -2.1754489E-16
   119.5300       -2.9759616E-16
   119.7200       -3.9292321E-16
   119.9100       -5.0075434E-16
   120.1000       -6.1703799E-16
   120.2900       -7.3651759E-16
   120.4800       -8.5288441E-16
   120.6700       -9.5899959E-16
   120.8600       -1.0471753E-15
   121.0500       -1.1095007E-15
   121.2400       -1.1381977E-15
   121.4300       -1.1259892E-15
   121.6200       -1.0664663E-15
   121.8100       -9.5443662E-16
   122.0000       -7.8624298E-16
   122.1900       -5.6004177E-16
   122.3800       -2.7602969E-16
   122.5700        6.3385884E-17
   122.7600        4.5348132E-16
   122.9500        8.8717866E-16
   123.1400        1.3550826E-15
   123.3300        1.8455948E-15
   123.5200        2.3451060E-15
   123.7100        2.8382742E-15
   123.9000        3.3083832E-15
   124.0900        3.7377806E-15
   124.2800        4.1083923E-15
   124.4700        4.4022970E-15
   124.6600        4.6023565E-15
   124.8500        4.6928742E-15
   125.0400        4.6602643E-15
   125.2300        4.4937050E-15
   125.4200        4.1857442E-15
   125.6100        3.7328327E-15
   125.8000        3.1357484E-15
   125.9900        2.3998919E-15
   126.1800        1.5354212E-15
   126.3700        5.5721946E-16
   126.5600       -5.1532256E-16
   126.7500       -1.6587027E-15
   126.9400       -2.8458727E-15
   127.1300       -4.0469578E-15
   127.3200       -5.2300977E-15
   127.5100       -6.3623732E-15
   127.7000       -7.4107870E-15
   127.8900       -8.3432474E-15
   128.0800       -9.1295269E-15
   128.2700       -9.7421528E-15
   128.4600       -1.0157196E-14
   128.6500       -1.0354956E-14
   128.8400       -1.0320498E-14
   129.0300       -1.0044077E-14
   129.2200       -9.5214101E-15
   129.4100       -8.7538424E-15
   129.6000       -7.7484016E-15
   129.7900       -6.5177576E-15
   129.9800       -5.0801089E-15
   130.1700       -3.4589939E-15
   130.3600       -1.6830375E-15
   130.5500        2.1437147E-16
   130.7400        2.1954870E-15
   130.9300        4.2187082E-15
   131.1200        6.2392032E-15
   131.3100        8.2096669E-15
   131.5000        1.0081234E-14
   131.6900        1.1804553E-14
   131.8800        1.3331022E-14
   132.0700        1.4614164E-14
   132.2600        1.5611115E-14
   132.4500        1.6284171E-14
   132.6400        1.6602346E-14
   132.8300        1.6542847E-14
   133.0200        1.6092406E-14
   133.2100        1.5248379E-14
   133.4000        1.4019502E-14
   133.5900        1.2426308E-14
   133.7800        1.0501052E-14
   133.9700        8.2871976E-15
   134.1600        5.8384067E-15
   134.3500        3.2170599E-15
   134.5400        4.9236696E-16
   134.7300       -2.2618768E-15
   134.9200       -4.9697833E-15
   135.1100       -7.5560108E-15
   135.3000       -9.9484206E-15
   135.4900       -1.2080636E-14
   135.6800       -1.3894385E-14
   135.8700       -1.5341506E-14
   136.0600       -1.6385563E-14
   136.2500       -1.7002958E-14
   136.4400       -1.7183559E-14
   136.6300       -1.6930784E-14
   136.8200       -1.6261206E-14
   137.0100       -1.5203682E-14
   137.2000       -1.3798093E-14
   137.3900       -1.2093772E-14
   137.5800       -1.0147690E-14
   137.7700       -8.0224871E-15
   137.9600       -5.7844333E-15
   138.1500       -3.5013854E-15
   138.3400       -1.2407938E-15
   138.5300        9.3219650E-16
   138.7200        2.9565175E-15
   138.9100        4.7768021E-15
   139.1000        6.3448447E-15
   139.2900        7.6208808E-15
   139.4800        8.5746738E-15
   139.6700        9.1863900E-15
   139.8600        9.4472287E-15
   140.0500        9.3597751E-15
   140.2400        8.9380534E-15
   140.4300        8.2072199E-15
   140.6200        7.2028819E-15
   140.8100        5.9700136E-15
   141.0000        4.5614613E-15
   141.1900        3.0360651E-15
   141.3800        1.4564343E-15
   141.5700       -1.1354444E-16
   141.7600       -1.6113572E-15
   141.9500       -2.9785490E-15
   142.1400       -4.1632919E-15
   142.3300       -5.1226829E-15
   142.5200       -5.8246166E-15