  -30.00000        1.0389811E-17
  -29.81000        1.0389811E-17
  -29.62000        1.0389811E-17
  -29.43000        1.0389811E-17
  -29.24000        1.0389812E-17
  -29.05000        1.0389813E-17
  -28.86000        1.0389813E-17
  -28.67000        1.0389813E-17
  -28.48000        1.0389812E-17
  -28.29000        1.0389812E-17
  -28.10000        1.0389812E-17
  -27.91000        1.0389812E-17
  -27.72000        1.0389811E-17
  -27.53000        1.0389812E-17
  -27.34000        1.0389812E-17
  -27.15000        1.0389812E-17
  -26.96000        1.0389812E-17
  -26.77000        1.0389811E-17
  -26.58000        1.0389811E-17
  -26.39000        1.0389812E-17
  -26.20000        1.0389812E-17
  -26.01000        1.0389812E-17
  -25.82000        1.0389813E-17
  -25.63000        1.0389813E-17
  -25.44000        1.0389813E-17
  -25.25000        1.0389812E-17
  -25.06000        1.0389811E-17
  -24.87000        1.0389811E-17
  -24.68000        1.0389811E-17
  -24.49000        1.0389810E-17
  -24.30000        1.0389811E-17
  -24.11000        1.0389812E-17
  -23.92000        1.0389813E-17
  -23.73000        1.0389814E-17
  -23.54000        1.0389814E-17
  -23.35000        1.0389814E-17
  -23.16000        1.0389814E-17
  -22.97000        1.0389813E-17
  -22.78000        1.0389812E-17
  -22.59000        1.0389810E-17
  -22.40000        1.0389809E-17
  -22.21000        1.0389808E-17
  -22.02000        1.0389808E-17
  -21.83000        1.0389808E-17
  -21.64000        1.0389810E-17
  -21.45000        1.0389812E-17
  -21.26000        1.0389814E-17
  -21.07000        1.0389814E-17
  -20.88000        1.0389815E-17
  -20.69000        1.0389814E-17
  -20.50000        1.0389813E-17
  -20.31000        1.0389811E-17
  -20.12000        1.0389810E-17
  -19.93000        1.0389810E-17
  -19.74000        1.0389811E-17
  -19.55000        1.0389812E-17
  -19.36000        1.0389814E-17
  -19.17000        1.0389815E-17
  -18.98000        1.0389815E-17
  -18.79000        1.0389814E-17
  -18.60000        1.0389812E-17
  -18.41000        1.0389810E-17
  -18.22000        1.0389808E-17
  -18.03000        1.0389808E-17
  -17.84000        1.0389808E-17
  -17.65000        1.0389810E-17
  -17.46000        1.0389810E-17
  -17.27000        1.0389811E-17
  -17.08000        1.0389811E-17
  -16.89000        1.0389810E-17
  -16.70000        1.0389810E-17
  -16.51000        1.0389809E-17
  -16.32000        1.0389807E-17
  -16.13000        1.0389807E-17
  -15.94000        1.0389808E-17
  -15.75000        1.0389809E-17
  -15.56000        1.0389811E-17
  -15.37000        1.0389814E-17
  -15.18000        1.0389814E-17
  -14.99000        1.0389815E-17
  -14.80000        1.0389816E-17
  -14.61000        1.0389816E-17
  -14.42000        1.0389817E-17
  -14.23000        1.0389816E-17
  -14.04000        1.0389815E-17
  -13.85000        1.0389814E-17
  -13.66000        1.0389814E-17
  -13.47000        1.0389813E-17
  -13.28000        1.0389813E-17
  -13.09000        1.0389814E-17
  -12.90000        1.0389814E-17
  -12.71000        1.0389814E-17
  -12.52000        1.0389814E-17
  -12.33000        1.0389812E-17
  -12.14000        1.0389810E-17
  -11.95000        1.0389808E-17
  -11.76000        1.0389805E-17
  -11.57000        1.0389804E-17
  -11.38000        1.0389804E-17
  -11.19000        1.0389805E-17
  -11.00000        1.0389808E-17
  -10.81000        1.0389810E-17
  -10.62000        1.0389813E-17
  -10.43000        1.0389815E-17
  -10.24000        1.0389815E-17
  -10.05000        1.0389814E-17
  -9.860000        1.0389812E-17
  -9.670000        1.0389810E-17
  -9.480000        1.0389810E-17
  -9.290000        1.0389810E-17
  -9.100000        1.0389811E-17
  -8.910000        1.0389814E-17
  -8.720000        1.0389816E-17
  -8.530000        1.0389817E-17
  -8.340000        1.0389817E-17
  -8.150000        1.0389815E-17
  -7.960000        1.0389813E-17
  -7.770000        1.0389810E-17
  -7.580000        1.0389808E-17
  -7.390000        1.0389806E-17
  -7.200000        1.0389805E-17
  -7.010000        1.0389806E-17
  -6.820000        1.0389807E-17
  -6.630000        1.0389809E-17
  -6.440000        1.0389809E-17
  -6.250000        1.0389809E-17
  -6.060000        1.0389809E-17
  -5.870000        1.0389808E-17
  -5.680000        1.0389805E-17
  -5.490000        1.0389805E-17
  -5.300000        1.0389805E-17
  -5.110000        1.0389805E-17
  -4.920000        1.0389807E-17
  -4.730000        1.0389810E-17
  -4.540000        1.0389811E-17
  -4.350000        1.0389813E-17
  -4.160000        1.0389814E-17
  -3.970000        1.0389814E-17
  -3.780000        1.0389816E-17
  -3.590000        1.0389817E-17
  -3.400000        1.0389819E-17
  -3.210000        1.0389821E-17
  -3.020000        1.0389824E-17
  -2.830000        1.0389826E-17
  -2.640000        1.0389827E-17
  -2.450000        1.0389826E-17
  -2.260000        1.0389823E-17
  -2.070000        1.0389819E-17
  -1.880000        1.0389814E-17
  -1.690000        1.0389810E-17
  -1.500000        1.0389806E-17
  -1.310000        1.0389804E-17
  -1.120000        1.0389803E-17
 -0.9300000        1.0389803E-17
 -0.7400000        1.0389805E-17
 -0.5500000        1.0389805E-17
 -0.3600000        1.0389807E-17
 -0.1700000        1.0389809E-17
  2.0000000E-02    1.0389809E-17
  0.2100000        1.0389809E-17
  0.4000000        1.0389808E-17
  0.5900000        1.0389808E-17
  0.7800000        1.0389809E-17
  0.9700000        1.0389810E-17
   1.160000        1.0389812E-17
   1.350000        1.0389814E-17
   1.540000        1.0389815E-17
   1.730000        1.0389817E-17
   1.920000        1.0389818E-17
   2.110000        1.0389817E-17
   2.300000        1.0389814E-17
   2.490000        1.0389811E-17
   2.680000        1.0389808E-17
   2.870000        1.0389805E-17
   3.060000        1.0389805E-17
   3.250000        1.0389808E-17
   3.440000        1.0389812E-17
   3.630000        1.0389817E-17
   3.820000        1.0389820E-17
   4.010000        1.0389822E-17
   4.200000        1.0389821E-17
   4.390000        1.0389818E-17
   4.580000        1.0389813E-17
   4.770000        1.0389808E-17
   4.960000        1.0389804E-17
   5.150000        1.0389802E-17
   5.340000        1.0389801E-17
   5.530000        1.0389804E-17
   5.720000        1.0389805E-17
   5.910000        1.0389807E-17
   6.100000        1.0389808E-17
   6.290000        1.0389807E-17
   6.480000        1.0389805E-17
   6.670000        1.0389802E-17
   6.860000        1.0389800E-17
   7.050000        1.0389801E-17
   7.240000        1.0389804E-17
   7.430000        1.0389808E-17
   7.620000        1.0389813E-17
   7.810000        1.0389816E-17
   8.000000        1.0389818E-17
   8.190000        1.0389817E-17
   8.380000        1.0389814E-17
   8.570000        1.0389810E-17
   8.760000        1.0389809E-17
   8.950000        1.0389810E-17
   9.140000        1.0389814E-17
   9.330000        1.0389819E-17
   9.520000        1.0389826E-17
   9.710000        1.0389831E-17
   9.900000        1.0389834E-17
   10.09000        1.0389831E-17
   10.28000        1.0389824E-17
   10.47000        1.0389817E-17
   10.66000        1.0389810E-17
   10.85000        1.0389805E-17
   11.04000        1.0389805E-17
   11.23000        1.0389807E-17
   11.42000        1.0389812E-17
   11.61000        1.0389816E-17
   11.80000        1.0389819E-17
   11.99000        1.0389818E-17
   12.18000        1.0389814E-17
   12.37000        1.0389808E-17
   12.56000        1.0389801E-17
   12.75000        1.0389798E-17
   12.94000        1.0389799E-17
   13.13000        1.0389804E-17
   13.32000        1.0389813E-17
   13.51000        1.0389822E-17
   13.70000        1.0389829E-17
   13.89000        1.0389832E-17
   14.08000        1.0389830E-17
   14.27000        1.0389824E-17
   14.46000        1.0389817E-17
   14.65000        1.0389812E-17
   14.84000        1.0389809E-17
   15.03000        1.0389810E-17
   15.22000        1.0389812E-17
   15.41000        1.0389815E-17
   15.60000        1.0389817E-17
   15.79000        1.0389815E-17
   15.98000        1.0389810E-17
   16.17000        1.0389804E-17
   16.36000        1.0389796E-17
   16.55000        1.0389792E-17
   16.74000        1.0389793E-17
   16.93000        1.0389798E-17
   17.12000        1.0389806E-17
   17.31000        1.0389816E-17
   17.50000        1.0389824E-17
   17.69000        1.0389829E-17
   17.88000        1.0389828E-17
   18.07000        1.0389824E-17
   18.26000        1.0389816E-17
   18.45000        1.0389809E-17
   18.64000        1.0389804E-17
   18.83000        1.0389801E-17
   19.02000        1.0389803E-17
   19.21000        1.0389806E-17
   19.40000        1.0389810E-17
   19.59000        1.0389811E-17
   19.78000        1.0389810E-17
   19.97000        1.0389806E-17
   20.16000        1.0389803E-17
   20.35000        1.0389800E-17
   20.54000        1.0389800E-17
   20.73000        1.0389803E-17
   20.92000        1.0389809E-17
   21.11000        1.0389817E-17
   21.30000        1.0389825E-17
   21.49000        1.0389831E-17
   21.68000        1.0389833E-17
   21.87000        1.0389830E-17
   22.06000        1.0389824E-17
   22.25000        1.0389816E-17
   22.44000        1.0389810E-17
   22.63000        1.0389804E-17
   22.82000        1.0389801E-17
   23.01000        1.0389800E-17
   23.20000        1.0389800E-17
   23.39000        1.0389801E-17
   23.58000        1.0389800E-17
   23.77000        1.0389798E-17
   23.96000        1.0389795E-17
   24.15000        1.0389793E-17
   24.34000        1.0389793E-17
   24.53000        1.0389795E-17
   24.72000        1.0389799E-17
   24.91000        1.0389805E-17
   25.10000        1.0389812E-17
   25.29000        1.0389819E-17
   25.48000        1.0389824E-17
   25.67000        1.0389828E-17
   25.86000        1.0389829E-17
   26.05000        1.0389829E-17
   26.24000        1.0389828E-17
   26.43000        1.0389827E-17
   26.62000        1.0389826E-17
   26.81000        1.0389825E-17
   27.00000        1.0389825E-17
   27.19000        1.0389824E-17
   27.38000        1.0389821E-17
   27.57000        1.0389818E-17
   27.76000        1.0389814E-17
   27.95000        1.0389809E-17
   28.14000        1.0389804E-17
   28.33000        1.0389801E-17
   28.52000        1.0389800E-17
   28.71000        1.0389801E-17
   28.90000        1.0389803E-17
   29.09000        1.0389805E-17
   29.28000        1.0389806E-17
   29.47000        1.0389808E-17
   29.66000        1.0389810E-17
   29.85000        1.0389810E-17
   30.04000        1.0389810E-17
   30.23000        1.0389809E-17
   30.42000        1.0389807E-17
   30.61000        1.0389806E-17
   30.80000        1.0389806E-17
   30.99000        1.0389806E-17
   31.18000        1.0389809E-17
   31.37000        1.0389812E-17
   31.56000        1.0389816E-17
   31.75000        1.0389820E-17
   31.94000        1.0389824E-17
   32.13000        1.0389825E-17
   32.32000        1.0389824E-17
   32.51000        1.0389822E-17
   32.70000        1.0389819E-17
   32.89000        1.0389816E-17
   33.08000        1.0389814E-17
   33.27000        1.0389812E-17
   33.46000        1.0389814E-17
   33.65000        1.0389814E-17
   33.84000        1.0389817E-17
   34.03000        1.0389818E-17
   34.22000        1.0389818E-17
   34.41000        1.0389815E-17
   34.60000        1.0389812E-17
   34.79000        1.0389808E-17
   34.98000        1.0389803E-17
   35.17000        1.0389801E-17
   35.36000        1.0389800E-17
   35.55000        1.0389802E-17
   35.74000        1.0389804E-17
   35.93000        1.0389806E-17
   36.12000        1.0389808E-17
   36.31000        1.0389810E-17
   36.50000        1.0389811E-17
   36.69000        1.0389812E-17
   36.88000        1.0389813E-17
   37.07000        1.0389812E-17
   37.26000        1.0389811E-17
   37.45000        1.0389810E-17
   37.64000        1.0389807E-17
   37.83000        1.0389804E-17
   38.02000        1.0389802E-17
   38.21000        1.0389801E-17
   38.40000        1.0389802E-17
   38.59000        1.0389805E-17
   38.78000        1.0389809E-17
   38.97000        1.0389813E-17
   39.16000        1.0389816E-17
   39.35000        1.0389819E-17
   39.54000        1.0389820E-17
   39.73000        1.0389821E-17
   39.92000        1.0389821E-17
   40.11000        1.0389820E-17
   40.30000        1.0389819E-17
   40.49000        1.0389814E-17
   40.68000        1.0389809E-17
   40.87000        1.0389802E-17
   41.06000        1.0389796E-17
   41.25000        1.0389793E-17
   41.44000        1.0389791E-17
   41.63000        1.0389793E-17
   41.82000        1.0389798E-17
   42.01000        1.0389805E-17
   42.20000        1.0389814E-17
   42.39000        1.0389822E-17
   42.58000        1.0389829E-17
   42.77000        1.0389835E-17
   42.96000        1.0389837E-17
   43.15000        1.0389837E-17
   43.34000        1.0389834E-17
   43.53000        1.0389831E-17
   43.72000        1.0389829E-17
   43.91000        1.0389829E-17
   44.10000        1.0389830E-17
   44.29000        1.0389831E-17
   44.48000        1.0389829E-17
   44.67000        1.0389824E-17
   44.86000        1.0389814E-17
   45.05000        1.0389797E-17
   45.24000        1.0389778E-17
   45.43000        1.0389758E-17
   45.62000        1.0389739E-17
   45.81000        1.0389724E-17
   46.00000        1.0389712E-17
   46.19000        1.0389704E-17
   46.38000        1.0389700E-17
   46.57000        1.0389698E-17
   46.76000        1.0389695E-17
   46.95000        1.0389691E-17
   47.14000        1.0389687E-17
   47.33000        1.0389686E-17
   47.52000        1.0389690E-17
   47.71000        1.0389704E-17
   47.90000        1.0389728E-17
   48.09000        1.0389769E-17
   48.28000        1.0389826E-17
   48.47000        1.0389899E-17
   48.66000        1.0389984E-17
   48.85000        1.0390078E-17
   49.04000        1.0390178E-17
   49.23000        1.0390277E-17
   49.42000        1.0390372E-17
   49.61000        1.0390459E-17
   49.80000        1.0390532E-17
   49.99000        1.0390590E-17
   50.18000        1.0390622E-17
   50.37000        1.0390626E-17
   50.56000        1.0390596E-17
   50.75000        1.0390527E-17
   50.94000        1.0390413E-17
   51.13000        1.0390251E-17
   51.32000        1.0390041E-17
   51.51000        1.0389782E-17
   51.70000        1.0389476E-17
   51.89000        1.0389127E-17
   52.08000        1.0388741E-17
   52.27000        1.0388327E-17
   52.46000        1.0387894E-17
   52.65000        1.0387453E-17
   52.84000        1.0387019E-17
   53.03000        1.0386607E-17
   53.22000        1.0386238E-17
   53.41000        1.0385933E-17
   53.60000        1.0385717E-17
   53.79000        1.0385622E-17
   53.98000        1.0385679E-17
   54.17000        1.0385923E-17
   54.36000        1.0386390E-17
   54.55000        1.0387111E-17
   54.74000        1.0388115E-17
   54.93000        1.0389419E-17
   55.12000        1.0391035E-17
   55.31000        1.0392959E-17
   55.50000        1.0395166E-17
   55.69000        1.0397619E-17
   55.88000        1.0400249E-17
   56.07000        1.0402967E-17
   56.26000        1.0405658E-17
   56.45000        1.0408182E-17
   56.64000        1.0410374E-17
   56.83000        1.0412052E-17
   57.02000        1.0413019E-17
   57.21000        1.0413073E-17
   57.40000        1.0412022E-17
   57.59000        1.0409688E-17
   57.78000        1.0405930E-17
   57.97000        1.0400649E-17
   58.16000        1.0393807E-17
   58.35000        1.0385437E-17
   58.54000        1.0375651E-17
   58.73000        1.0364648E-17
   58.92000        1.0352731E-17
   59.11000        1.0340294E-17
   59.30000        1.0327831E-17
   59.49000        1.0315926E-17
   59.68000        1.0305244E-17
   59.87000        1.0296508E-17
   60.06000        1.0290478E-17
   60.25000        1.0287916E-17
   60.44000        1.0289549E-17
   60.63000        1.0296030E-17
   60.82000        1.0307889E-17
   61.01000        1.0325496E-17
   61.20000        1.0349013E-17
   61.39000        1.0378354E-17
   61.58000        1.0413158E-17
   61.77000        1.0452761E-17
   61.96000        1.0496178E-17
   62.15000        1.0542098E-17
   62.34000        1.0588898E-17
   62.53000        1.0634655E-17
   62.72000        1.0677189E-17
   62.91000        1.0714119E-17
   63.10000        1.0742935E-17
   63.29000        1.0761097E-17
   63.48000        1.0766135E-17
   63.67000        1.0755782E-17
   63.86000        1.0728112E-17
   64.05000        1.0681673E-17
   64.24000        1.0615638E-17
   64.43000        1.0529937E-17
   64.62000        1.0425377E-17
   64.81000        1.0303732E-17
   65.00000        1.0167811E-17
   65.19000        1.0021468E-17
   65.38000        9.8695733E-18
   65.57000        9.7179288E-18
   65.76000        9.5731101E-18
   65.95000        9.4422650E-18
   66.14000        9.3328406E-18
   66.33000        9.2522683E-18
   66.52000        9.2076038E-18
   66.71000        9.2051554E-18
   66.90000        9.2500920E-18
   67.09000        9.3460912E-18
   67.28000        9.4950069E-18
   67.47000        9.6966206E-18
   67.66000        9.9484607E-18
   67.85000        1.0245726E-17
   68.04000        1.0581321E-17
   68.23000        1.0945991E-17
   68.42000        1.1328580E-17
   68.61000        1.1716380E-17
   68.80000        1.2095562E-17
   68.99000        1.2451679E-17
   69.18000        1.2770202E-17
   69.37000        1.3037067E-17
   69.56000        1.3239208E-17
   69.75000        1.3365042E-17
   69.94000        1.3404896E-17
   70.13000        1.3351349E-17
   70.32000        1.3199485E-17
   70.51000        1.2947057E-17
   70.70000        1.2594566E-17
   70.89000        1.2145256E-17
   71.08000        1.1605066E-17
   71.27000        1.0982518E-17
   71.46000        1.0288587E-17
   71.65000        9.5365347E-18
   71.84000        8.7417514E-18
   72.03000        7.9215630E-18
   72.22000        7.0950408E-18
   72.41000        6.2827850E-18
   72.60000        5.5066745E-18
   72.79000        4.7895825E-18
   72.98000        4.1550287E-18
   73.17000        3.6267705E-18
   73.36000        3.2283168E-18
   73.55000        2.9823641E-18
   73.74000        2.9101608E-18
   73.93000        3.0308018E-18
   74.12000        3.3604814E-18
   74.31000        3.9117251E-18
   74.50000        4.6926258E-18
   74.69000        5.7061260E-18
   74.88000        6.9493619E-18
   75.07000        8.4131142E-18
   75.26000        1.0081383E-17
   75.45000        1.1931094E-17
   75.64000        1.3931981E-17
   75.83000        1.6046627E-17
   76.02000        1.8230684E-17
   76.21000        2.0433287E-17
   76.40000        2.2597666E-17
   76.59000        2.4661953E-17
   76.78000        2.6560212E-17
   76.97000        2.8223697E-17
   77.16000        2.9582331E-17
   77.35000        3.0566454E-17
   77.54000        3.1108784E-17
   77.73000        3.1146619E-17
   77.92000        3.0624264E-17
   78.11000        2.9495629E-17
   78.30000        2.7726910E-17
   78.49000        2.5299307E-17
   78.68000        2.2211649E-17
   78.87000        1.8482722E-17
   79.06000        1.4153236E-17
   79.25000        9.2871405E-18
   79.44000        3.9722177E-18
   79.63000       -1.6803000E-18
   79.82000       -7.5371275E-18
   80.01000       -1.3445463E-17
   80.20000       -1.9236651E-17
   80.39000       -2.4730907E-17
   80.58000       -2.9742963E-17
   80.77000       -3.4088417E-17
   80.96000       -3.7590508E-17
   81.15000       -4.0086989E-17
   81.34000       -4.1436736E-17
   81.53000       -4.1525694E-17
   81.72000       -4.0271880E-17
   81.91000       -3.7629055E-17
   82.10000       -3.3588900E-17
   82.29000       -2.8181597E-17
   82.48000       -2.1474704E-17
   82.67000       -1.3570568E-17
   82.86000       -4.6023986E-18
   83.05000        5.2706092E-18
   83.24000        1.5868729E-17
   83.43000        2.6997283E-17
   83.62000        3.8451941E-17
   83.81000        5.0023301E-17
   84.00000        6.1500475E-17
   84.19000        7.2673495E-17
   84.38000        8.3334364E-17
   84.57000        9.3276962E-17
   84.76000        1.0229588E-16
   84.95000        1.1018464E-16
   85.14000        1.1673362E-16
   85.33000        1.2172831E-16
   85.52000        1.2494845E-16
   85.71000        1.2616852E-16
   85.90000        1.2516017E-16
   86.09000        1.2169685E-16
   86.28000        1.1556101E-16
   86.47000        1.0655375E-16
   86.66000        9.4506967E-17
   86.85000        7.9297286E-17
   87.04000        6.0861660E-17
   87.23000        3.9213493E-17
   87.42000        1.4458720E-17
   87.61000       -1.3189207E-17
   87.80000       -4.3396449E-17
   87.99000       -7.5698878E-17
   88.18000       -1.0949618E-16
   88.37000       -1.4405078E-16
   88.56000       -1.7849228E-16
   88.75000       -2.1182797E-16
   88.94000       -2.4295999E-16
   89.13000       -2.7070906E-16
   89.32000       -2.9384465E-16
   89.51000       -3.1112182E-16
   89.70000       -3.2132338E-16
   89.89000       -3.2330694E-16
   90.08000       -3.1605592E-16
   90.27000       -2.9873206E-16
   90.46000       -2.7072928E-16
   90.65000       -2.3172513E-16
   90.84000       -1.8172881E-16
   91.03000       -1.2112285E-16
   91.22000       -5.0695498E-17
   91.41000        2.8338371E-17
   91.60000        1.1433075E-16
   91.79000        2.0521054E-16
   91.98000        2.9851225E-16
   92.17000        3.9142459E-16
   92.36000        4.8085917E-16
   92.55000        5.6353923E-16
   92.74000        6.3610671E-16
   92.93000        6.9524491E-16
   93.12000        7.3781292E-16
   93.31000        7.6098711E-16
   93.50000        7.6240361E-16
   93.69000        7.4029552E-16
   93.88000        6.9361744E-16
   94.07000        6.2215015E-16
   94.26000        5.2657910E-16
   94.45000        4.0853974E-16
   94.64000        2.7062491E-16
   94.83000        1.1635072E-16
   95.02000       -4.9921167E-17
   95.21000       -2.2310424E-16
   95.40000       -3.9754864E-16
   95.59000       -5.6723832E-16
   95.78000       -7.2601719E-16
   95.97000       -8.6783481E-16
   96.16000       -9.8700197E-16
   96.35000       -1.0784436E-15
   96.54000       -1.1379372E-15
   96.73000       -1.1623251E-15
   96.92000       -1.1496882E-15
   97.11000       -1.0994715E-15
   97.30000       -1.0125542E-15
   97.49000       -8.9125590E-16
   97.68000       -7.3928067E-16
   97.87000       -5.6159428E-16
   98.06000       -3.6424299E-16
   98.25000       -1.5411791E-16
   98.44000        6.1323419E-17
   98.63000        2.7436660E-16
   98.82000        4.7736638E-16
   99.01000        6.6307386E-16
   99.20000        8.2494921E-16
   99.39000        9.5744464E-16
   99.58000        1.0562438E-15
   99.77000        1.1184458E-15
   99.96000        1.1426854E-15
   100.1500        1.1291821E-15
   100.3400        1.0797172E-15
   100.5300        9.9753906E-16
   100.7200        8.8720031E-16
   100.9100        7.5433721E-16
   101.1000        6.0539922E-16
   101.2900        4.4734314E-16
   101.4800        2.8730579E-16
   101.6700        1.3227040E-16
   101.8600       -1.1257953E-17
   102.0500       -1.3755282E-16
   102.2400       -2.4192968E-16
   102.4300       -3.2095960E-16
   102.6200       -3.7262409E-16
   102.8100       -3.9640372E-16
   103.0000       -3.9329556E-16
   103.1900       -3.6575857E-16
   103.3800       -3.1758775E-16
   103.5700       -2.5372186E-16
   103.7600       -1.7999176E-16
   103.9500       -1.0282007E-16
   104.1400       -2.8884101E-17
   104.3300        3.5242437E-17
   104.5200        8.3453312E-17
   104.7100        1.1046150E-16
   104.9000        1.1212151E-16
   105.0900        8.5704825E-17
   105.2800        3.0112958E-17
   105.4700       -5.3986168E-17
   105.6600       -1.6410927E-16
   105.8500       -2.9600355E-16
   106.0400       -4.4379042E-16
   106.2300       -6.0020474E-16
   106.4200       -7.5692241E-16
   106.6100       -9.0496333E-16
   106.8000       -1.0351514E-15
   106.9900       -1.1386101E-15
   107.1800       -1.2072654E-15
   107.3700       -1.2343303E-15
   107.5600       -1.2147402E-15
   107.7500       -1.1455109E-15
   107.9400       -1.0259969E-15
   108.1300       -8.5802765E-16
   108.3200       -6.4590826E-16
   108.5100       -3.9628021E-16
   108.7000       -1.1784326E-16
   108.8900        1.7904991E-16
   109.0800        4.8290518E-16
   109.2700        7.8167742E-16
   109.4600        1.0634052E-15
   109.6500        1.3168509E-15
   109.8400        1.5321063E-15
   110.0300        1.7011247E-15
   110.2200        1.8181425E-15
   110.4100        1.8799636E-15
   110.6000        1.8860881E-15
   110.7900        1.8386714E-15
   110.9800        1.7423210E-15
   111.1700        1.6037434E-15
   111.3600        1.4312642E-15
   111.5500        1.2342567E-15
   111.7400        1.0225188E-15
   111.9300        8.0564078E-16
   112.1200        5.9240923E-16
   112.3100        3.9028817E-16
   112.5000        2.0501122E-16
   112.6900        4.0312412E-17
   112.8800       -1.0218910E-16
   113.0700       -2.2294722E-16
   113.2600       -3.2429713E-16
   113.4500       -4.1013296E-16
   113.6400       -4.8548307E-16
   113.8300       -5.5601773E-16
   114.0200       -6.2752711E-16
   114.2100       -7.0540893E-16
   114.4000       -7.9420048E-16
   114.5900       -8.9718662E-16
   114.7800       -1.0161052E-15
   114.9700       -1.1509648E-15
   115.1600       -1.2999774E-15
   115.3500       -1.4596037E-15
   115.5400       -1.6246964E-15
   115.7300       -1.7887254E-15
   115.9200       -1.9440620E-15
   116.1100       -2.0823024E-15
   116.3000       -2.1946065E-15
   116.4900       -2.2720392E-15
   116.6800       -2.3058988E-15
   116.8700       -2.2880283E-15
   117.0600       -2.2111092E-15
   117.2500       -2.0689419E-15
   117.4400       -1.8567174E-15
   117.6300       -1.5712895E-15
   117.8200       -1.2114534E-15
   118.0100       -7.7822920E-16
   118.2000       -2.7514719E-16
   118.3900        2.9147910E-16
   118.5800        9.1231261E-16
   118.7700        1.5748133E-15
   118.9600        2.2631524E-15
   119.1500        2.9582590E-15
   119.3400        3.6380294E-15
   119.5300        4.2777341E-15
   119.7200        4.8506422E-15
   119.9100        5.3288664E-15
   120.1000        5.6844313E-15
   120.2900        5.8905259E-15
   120.4800        5.9229067E-15
   120.6700        5.7613809E-15
   120.8600        5.3912969E-15
   121.0500        4.8049473E-15
   121.2400        4.0027944E-15
   121.4300        2.9944148E-15
   121.6200        1.7990855E-15
   121.8100        4.4592452E-16
   122.0000       -1.0264572E-15
   122.1900       -2.5708272E-15
   122.3800       -4.1327216E-15
   122.5700       -5.6523220E-15
   122.7600       -7.0667552E-15
   122.9500       -8.3127195E-15
   123.1400       -9.3293242E-15
   123.3300       -1.0061005E-14
   123.5200       -1.0460355E-14
   123.7100       -1.0490750E-14
   123.9000       -1.0128596E-14
   124.0900       -9.3650766E-15
   124.2800       -8.2073113E-15
   124.4700       -6.6788209E-15
   124.6600       -4.8192727E-15
   124.8500       -2.6834900E-15
   125.0400       -3.3975534E-16
   125.2300        2.1325278E-15
   125.4200        4.6457254E-15
   125.6100        7.1072849E-15
   125.8000        9.4233423E-15
   125.9900        1.1502448E-14
   126.1800        1.3259282E-14
   126.3700        1.4618166E-14
   126.5600        1.5516256E-14
   126.7500        1.5906262E-14
   126.9400        1.5758586E-14
   127.1300        1.5062775E-14
   127.3200        1.3828267E-14
   127.5100        1.2084345E-14
   127.7000        9.8793163E-15
   127.8900        7.2789598E-15
   128.0800        4.3642610E-15
   128.2700        1.2285432E-15
   128.4600       -2.0259110E-15
   128.6500       -5.2916190E-15
   128.8400       -8.4598915E-15
   129.0300       -1.1424902E-14
   129.2200       -1.4087671E-14
   129.4100       -1.6359789E-14
   129.6000       -1.8166737E-14
   129.7900       -1.9450629E-14
   129.9800       -2.0172286E-14
   130.1700       -2.0312509E-14
   130.3600       -1.9872508E-14
   130.5500       -1.8873458E-14
   130.7400       -1.7355207E-14
   130.9300       -1.5374177E-14
   131.1200       -1.3000594E-14
   131.3100       -1.0315176E-14
   131.5000       -7.4054464E-15
   131.6900       -4.3618885E-15
   131.8800       -1.2741267E-15
   132.0700        1.7726460E-15
   132.2600        4.7008088E-15
   132.4500        7.4428683E-15
   132.6400        9.9433003E-15
   132.8300        1.2159594E-14
   133.0200        1.4062504E-14
   133.2100        1.5635507E-14
   133.4000        1.6873579E-14
   133.5900        1.7781414E-14
   133.7800        1.8371230E-14
   133.9700        1.8660390E-14
   134.1600        1.8668996E-14
   134.3500        1.8417685E-14
   134.5400        1.7925763E-14
   134.7300        1.7209836E-14
   134.9200        1.6282992E-14
   135.1100        1.5154637E-14
   135.3000        1.3830887E-14
   135.4900        1.2315514E-14
   135.6800        1.0611308E-14
   135.8700        8.7217001E-15
   136.0600        6.6525104E-15
   136.2500        4.4136151E-15
   136.4400        2.0203987E-15
   136.6300       -5.0517003E-16
   136.8200       -3.1339232E-15
   137.0100       -5.8294061E-15
   137.2000       -8.5483327E-15
   137.3900       -1.1241535E-14
   137.5800       -1.3855346E-14
   137.7700       -1.6333291E-14
   137.9600       -1.8617982E-14
   138.1500       -2.0653048E-14
   138.3400       -2.2385006E-14
   138.5300       -2.3764932E-14
   138.7200       -2.4749905E-14
   138.9100       -2.5304105E-14
   139.1000       -2.5399633E-14
   139.2900       -2.5017040E-14
   139.4800       -2.4145619E-14
   139.6700       -2.2783558E-14
   139.8600       -2.0938002E-14
   140.0500       -1.8625111E-14
   140.2400       -1.5870160E-14
   140.4300       -1.2707696E-14
   140.6200       -9.1817338E-15
   140.8100       -5.3459540E-15
   141.0000       -1.2637970E-15
   141.1900        2.9916272E-15
   141.3800        7.3379515E-15
   141.5700        1.1684393E-14
   141.7600        1.5933112E-14
   141.9500        1.9981157E-14
   142.1400        2.3723001E-14
   142.3300        2.7053633E-14
   142.5200        2.9872087E-14