  -30.00000        1.0972605E-17
  -29.81000        1.0972605E-17
  -29.62000        1.0972605E-17
  -29.43000        1.0972605E-17
  -29.24000        1.0972605E-17
  -29.05000        1.0972606E-17
  -28.86000        1.0972607E-17
  -28.67000        1.0972608E-17
  -28.48000        1.0972608E-17
  -28.29000        1.0972608E-17
  -28.10000        1.0972607E-17
  -27.91000        1.0972606E-17
  -27.72000        1.0972605E-17
  -27.53000        1.0972605E-17
  -27.34000        1.0972605E-17
  -27.15000        1.0972605E-17
  -26.96000        1.0972605E-17
  -26.77000        1.0972606E-17
  -26.58000        1.0972607E-17
  -26.39000        1.0972608E-17
  -26.20000        1.0972609E-17
  -26.01000        1.0972608E-17
  -25.82000        1.0972607E-17
  -25.63000        1.0972606E-17
  -25.44000        1.0972605E-17
  -25.25000        1.0972604E-17
  -25.06000        1.0972604E-17
  -24.87000        1.0972604E-17
  -24.68000        1.0972605E-17
  -24.49000        1.0972605E-17
  -24.30000        1.0972607E-17
  -24.11000        1.0972609E-17
  -23.92000        1.0972610E-17
  -23.73000        1.0972610E-17
  -23.54000        1.0972609E-17
  -23.35000        1.0972607E-17
  -23.16000        1.0972606E-17
  -22.97000        1.0972604E-17
  -22.78000        1.0972603E-17
  -22.59000        1.0972603E-17
  -22.40000        1.0972604E-17
  -22.21000        1.0972605E-17
  -22.02000        1.0972607E-17
  -21.83000        1.0972608E-17
  -21.64000        1.0972609E-17
  -21.45000        1.0972608E-17
  -21.26000        1.0972607E-17
  -21.07000        1.0972605E-17
  -20.88000        1.0972604E-17
  -20.69000        1.0972602E-17
  -20.50000        1.0972600E-17
  -20.31000        1.0972600E-17
  -20.12000        1.0972602E-17
  -19.93000        1.0972605E-17
  -19.74000        1.0972607E-17
  -19.55000        1.0972610E-17
  -19.36000        1.0972611E-17
  -19.17000        1.0972611E-17
  -18.98000        1.0972610E-17
  -18.79000        1.0972607E-17
  -18.60000        1.0972605E-17
  -18.41000        1.0972604E-17
  -18.22000        1.0972602E-17
  -18.03000        1.0972603E-17
  -17.84000        1.0972605E-17
  -17.65000        1.0972609E-17
  -17.46000        1.0972610E-17
  -17.27000        1.0972611E-17
  -17.08000        1.0972610E-17
  -16.89000        1.0972608E-17
  -16.70000        1.0972605E-17
  -16.51000        1.0972602E-17
  -16.32000        1.0972600E-17
  -16.13000        1.0972599E-17
  -15.94000        1.0972600E-17
  -15.75000        1.0972603E-17
  -15.56000        1.0972605E-17
  -15.37000        1.0972608E-17
  -15.18000        1.0972610E-17
  -14.99000        1.0972610E-17
  -14.80000        1.0972609E-17
  -14.61000        1.0972607E-17
  -14.42000        1.0972605E-17
  -14.23000        1.0972602E-17
  -14.04000        1.0972601E-17
  -13.85000        1.0972601E-17
  -13.66000        1.0972604E-17
  -13.47000        1.0972606E-17
  -13.28000        1.0972609E-17
  -13.09000        1.0972610E-17
  -12.90000        1.0972611E-17
  -12.71000        1.0972610E-17
  -12.52000        1.0972609E-17
  -12.33000        1.0972607E-17
  -12.14000        1.0972605E-17
  -11.95000        1.0972603E-17
  -11.76000        1.0972602E-17
  -11.57000        1.0972602E-17
  -11.38000        1.0972604E-17
  -11.19000        1.0972605E-17
  -11.00000        1.0972607E-17
  -10.81000        1.0972608E-17
  -10.62000        1.0972609E-17
  -10.43000        1.0972609E-17
  -10.24000        1.0972608E-17
  -10.05000        1.0972606E-17
  -9.860000        1.0972605E-17
  -9.670000        1.0972605E-17
  -9.480000        1.0972604E-17
  -9.290000        1.0972604E-17
  -9.100000        1.0972604E-17
  -8.910000        1.0972605E-17
  -8.720000        1.0972606E-17
  -8.530000        1.0972607E-17
  -8.340000        1.0972608E-17
  -8.150000        1.0972609E-17
  -7.960000        1.0972608E-17
  -7.770000        1.0972607E-17
  -7.580000        1.0972605E-17
  -7.390000        1.0972604E-17
  -7.200000        1.0972603E-17
  -7.010000        1.0972603E-17
  -6.820000        1.0972604E-17
  -6.630000        1.0972604E-17
  -6.440000        1.0972605E-17
  -6.250000        1.0972606E-17
  -6.060000        1.0972607E-17
  -5.870000        1.0972609E-17
  -5.680000        1.0972610E-17
  -5.490000        1.0972610E-17
  -5.300000        1.0972610E-17
  -5.110000        1.0972609E-17
  -4.920000        1.0972607E-17
  -4.730000        1.0972606E-17
  -4.540000        1.0972605E-17
  -4.350000        1.0972603E-17
  -4.160000        1.0972602E-17
  -3.970000        1.0972602E-17
  -3.780000        1.0972603E-17
  -3.590000        1.0972604E-17
  -3.400000        1.0972605E-17
  -3.210000        1.0972607E-17
  -3.020000        1.0972607E-17
  -2.830000        1.0972606E-17
  -2.640000        1.0972605E-17
  -2.450000        1.0972604E-17
  -2.260000        1.0972602E-17
  -2.070000        1.0972601E-17
  -1.880000        1.0972601E-17
  -1.690000        1.0972602E-17
  -1.500000        1.0972605E-17
  -1.310000        1.0972608E-17
  -1.120000        1.0972611E-17
 -0.9300000        1.0972613E-17
 -0.7400000        1.0972614E-17
 -0.5500000        1.0972613E-17
 -0.3600000        1.0972610E-17
 -0.1700000        1.0972608E-17
  2.0000000E-02    1.0972605E-17
  0.2100000        1.0972605E-17
  0.4000000        1.0972605E-17
  0.5900000        1.0972605E-17
  0.7800000        1.0972607E-17
  0.9700000        1.0972608E-17
   1.160000        1.0972609E-17
   1.350000        1.0972607E-17
   1.540000        1.0972605E-17
   1.730000        1.0972602E-17
   1.920000        1.0972600E-17
   2.110000        1.0972598E-17
   2.300000        1.0972599E-17
   2.490000        1.0972600E-17
   2.680000        1.0972603E-17
   2.870000        1.0972605E-17
   3.060000        1.0972609E-17
   3.250000        1.0972610E-17
   3.440000        1.0972610E-17
   3.630000        1.0972608E-17
   3.820000        1.0972605E-17
   4.010000        1.0972602E-17
   4.200000        1.0972600E-17
   4.390000        1.0972599E-17
   4.580000        1.0972599E-17
   4.770000        1.0972600E-17
   4.960000        1.0972601E-17
   5.150000        1.0972602E-17
   5.340000        1.0972602E-17
   5.530000        1.0972602E-17
   5.720000        1.0972600E-17
   5.910000        1.0972600E-17
   6.100000        1.0972601E-17
   6.290000        1.0972603E-17
   6.480000        1.0972606E-17
   6.670000        1.0972610E-17
   6.860000        1.0972615E-17
   7.050000        1.0972616E-17
   7.240000        1.0972616E-17
   7.430000        1.0972614E-17
   7.620000        1.0972610E-17
   7.810000        1.0972608E-17
   8.000000        1.0972607E-17
   8.190000        1.0972608E-17
   8.380000        1.0972610E-17
   8.570000        1.0972613E-17
   8.760000        1.0972615E-17
   8.950000        1.0972617E-17
   9.140000        1.0972616E-17
   9.330000        1.0972613E-17
   9.520000        1.0972608E-17
   9.710000        1.0972603E-17
   9.900000        1.0972600E-17
   10.09000        1.0972598E-17
   10.28000        1.0972600E-17
   10.47000        1.0972605E-17
   10.66000        1.0972610E-17
   10.85000        1.0972614E-17
   11.04000        1.0972616E-17
   11.23000        1.0972615E-17
   11.42000        1.0972611E-17
   11.61000        1.0972607E-17
   11.80000        1.0972603E-17
   11.99000        1.0972600E-17
   12.18000        1.0972599E-17
   12.37000        1.0972600E-17
   12.56000        1.0972601E-17
   12.75000        1.0972604E-17
   12.94000        1.0972605E-17
   13.13000        1.0972605E-17
   13.32000        1.0972603E-17
   13.51000        1.0972600E-17
   13.70000        1.0972598E-17
   13.89000        1.0972596E-17
   14.08000        1.0972595E-17
   14.27000        1.0972596E-17
   14.46000        1.0972599E-17
   14.65000        1.0972602E-17
   14.84000        1.0972605E-17
   15.03000        1.0972610E-17
   15.22000        1.0972610E-17
   15.41000        1.0972610E-17
   15.60000        1.0972609E-17
   15.79000        1.0972607E-17
   15.98000        1.0972606E-17
   16.17000        1.0972605E-17
   16.36000        1.0972606E-17
   16.55000        1.0972607E-17
   16.74000        1.0972607E-17
   16.93000        1.0972607E-17
   17.12000        1.0972606E-17
   17.31000        1.0972605E-17
   17.50000        1.0972605E-17
   17.69000        1.0972605E-17
   17.88000        1.0972605E-17
   18.07000        1.0972607E-17
   18.26000        1.0972610E-17
   18.45000        1.0972611E-17
   18.64000        1.0972610E-17
   18.83000        1.0972607E-17
   19.02000        1.0972601E-17
   19.21000        1.0972594E-17
   19.40000        1.0972591E-17
   19.59000        1.0972593E-17
   19.78000        1.0972603E-17
   19.97000        1.0972622E-17
   20.16000        1.0972647E-17
   20.35000        1.0972669E-17
   20.54000        1.0972683E-17
   20.73000        1.0972682E-17
   20.92000        1.0972663E-17
   21.11000        1.0972624E-17
   21.30000        1.0972567E-17
   21.49000        1.0972496E-17
   21.68000        1.0972418E-17
   21.87000        1.0972342E-17
   22.06000        1.0972274E-17
   22.25000        1.0972230E-17
   22.44000        1.0972229E-17
   22.63000        1.0972293E-17
   22.82000        1.0972440E-17
   23.01000        1.0972681E-17
   23.20000        1.0973003E-17
   23.39000        1.0973375E-17
   23.58000        1.0973739E-17
   23.77000        1.0974025E-17
   23.96000        1.0974166E-17
   24.15000        1.0974117E-17
   24.34000        1.0973856E-17
   24.53000        1.0973401E-17
   24.72000        1.0972794E-17
   24.91000        1.0972086E-17
   25.10000        1.0971327E-17
   25.29000        1.0970552E-17
   25.48000        1.0969785E-17
   25.67000        1.0969049E-17
   25.86000        1.0968388E-17
   26.05000        1.0967874E-17
   26.24000        1.0967620E-17
   26.43000        1.0967766E-17
   26.62000        1.0968457E-17
   26.81000        1.0969824E-17
   27.00000        1.0971942E-17
   27.19000        1.0974811E-17
   27.38000        1.0978316E-17
   27.57000        1.0982216E-17
   27.76000        1.0986125E-17
   27.95000        1.0989537E-17
   28.14000        1.0991871E-17
   28.33000        1.0992556E-17
   28.52000        1.0991144E-17
   28.71000        1.0987418E-17
   28.90000        1.0981464E-17
   29.09000        1.0973687E-17
   29.28000        1.0964743E-17
   29.47000        1.0955417E-17
   29.66000        1.0946478E-17
   29.85000        1.0938578E-17
   30.04000        1.0932203E-17
   30.23000        1.0927719E-17
   30.42000        1.0925452E-17
   30.61000        1.0925777E-17
   30.80000        1.0929145E-17
   30.99000        1.0936047E-17
   31.18000        1.0946892E-17
   31.37000        1.0961882E-17
   31.56000        1.0980890E-17
   31.75000        1.1003380E-17
   31.94000        1.1028379E-17
   32.13000        1.1054443E-17
   32.32000        1.1079627E-17
   32.51000        1.1101467E-17
   32.70000        1.1117034E-17
   32.89000        1.1123157E-17
   33.08000        1.1116843E-17
   33.27000        1.1095886E-17
   33.46000        1.1059509E-17
   33.65000        1.1008840E-17
   33.84000        1.0947026E-17
   34.03000        1.0878885E-17
   34.22000        1.0810188E-17
   34.41000        1.0746783E-17
   34.60000        1.0693869E-17
   34.79000        1.0655626E-17
   34.98000        1.0635252E-17
   35.17000        1.0635222E-17
   35.36000        1.0657506E-17
   35.55000        1.0703462E-17
   35.74000        1.0773365E-17
   35.93000        1.0865728E-17
   36.12000        1.0976772E-17
   36.31000        1.1100392E-17
   36.50000        1.1228734E-17
   36.69000        1.1353214E-17
   36.88000        1.1465553E-17
   37.07000        1.1558366E-17
   37.26000        1.1625133E-17
   37.45000        1.1659709E-17
   37.64000        1.1655928E-17
   37.83000        1.1607910E-17
   38.02000        1.1511371E-17
   38.21000        1.1365701E-17
   38.40000        1.1175989E-17
   38.59000        1.0953979E-17
   38.78000        1.0717149E-17
   38.97000        1.0485896E-17
   39.16000        1.0279608E-17
   39.35000        1.0112985E-17
   39.54000        9.9939680E-18
   39.73000        9.9239182E-18
   39.92000        9.8996926E-18
   40.11000        9.9164273E-18
   40.30000        9.9695919E-18
   40.49000        1.0055460E-17
   40.68000        1.0170139E-17
   40.87000        1.0308335E-17
   41.06000        1.0463286E-17
   41.25000        1.0628761E-17
   41.44000        1.0802662E-17
   41.63000        1.0990541E-17
   41.82000        1.1206746E-17
   42.01000        1.1471608E-17
   42.20000        1.1804736E-17
   42.39000        1.2216428E-17
   42.58000        1.2700390E-17
   42.77000        1.3230679E-17
   42.96000        1.3764036E-17
   43.15000        1.4246409E-17
   43.34000        1.4620685E-17
   43.53000        1.4832392E-17
   43.72000        1.4831822E-17
   43.91000        1.4573597E-17
   44.10000        1.4016913E-17
   44.29000        1.3129988E-17
   44.48000        1.1900258E-17
   44.67000        1.0348179E-17
   44.86000        8.5392204E-18
   45.05000        6.5873810E-18
   45.24000        4.6457511E-18
   45.43000        2.8844863E-18
   45.62000        1.4621535E-18
   45.81000        4.9994998E-19
   46.00000        6.7910391E-20
   46.19000        1.8759873E-19
   46.38000        8.4886003E-19
   46.57000        2.0321534E-18
   46.76000        3.7256438E-18
   46.95000        5.9288927E-18
   47.14000        8.6414252E-18
   47.33000        1.1841582E-17
   47.52000        1.5465407E-17
   47.71000        1.9394823E-17
   47.90000        2.3459315E-17
   48.09000        2.7448706E-17
   48.28000        3.1129758E-17
   48.47000        3.4259184E-17
   48.66000        3.6590119E-17
   48.85000        3.7875479E-17
   49.04000        3.7876448E-17
   49.23000        3.6383741E-17
   49.42000        3.3253349E-17
   49.61000        2.8449577E-17
   49.80000        2.2080883E-17
   49.99000        1.4412886E-17
   50.18000        5.8490963E-18
   50.37000       -3.1183069E-18
   50.56000       -1.1973768E-17
   50.75000       -2.0239384E-17
   50.94000       -2.7513842E-17
   51.13000       -3.3481614E-17
   51.32000       -3.7897958E-17
   51.51000       -4.0565351E-17
   51.70000       -4.1318826E-17
   51.89000       -4.0030919E-17
   52.08000       -3.6634886E-17
   52.27000       -3.1153819E-17
   52.46000       -2.3718840E-17
   52.65000       -1.4563904E-17
   52.84000       -3.9954697E-18
   53.03000        7.6528980E-18
   53.22000        2.0063941E-17
   53.41000        3.2962353E-17
   53.60000        4.6114783E-17
   53.79000        5.9307169E-17
   53.98000        7.2310131E-17
   54.17000        8.4845186E-17
   54.36000        9.6560260E-17
   54.55000        1.0701680E-16
   54.74000        1.1568611E-16
   54.93000        1.2195280E-16
   55.12000        1.2512721E-16
   55.31000        1.2447289E-16
   55.50000        1.1925612E-16
   55.69000        1.0881925E-16
   55.88000        9.2671340E-17
   56.07000        7.0580562E-17
   56.26000        4.2650233E-17
   56.45000        9.3643992E-18
   56.64000       -2.8401571E-17
   56.83000       -6.9399792E-17
   57.02000       -1.1204809E-16
   57.21000       -1.5448010E-16
   57.40000       -1.9460767E-16
   57.59000       -2.3020312E-16
   57.78000       -2.5900936E-16
   57.97000       -2.7887760E-16
   58.16000       -2.8791854E-16
   58.35000       -2.8464299E-16
   58.54000       -2.6806663E-16
   58.73000       -2.3776702E-16
   58.92000       -1.9390147E-16
   59.11000       -1.3721212E-16
   59.30000       -6.9047287E-17
   59.49000        8.5886279E-18
   59.68000        9.2976894E-17
   59.87000        1.8066867E-16
   60.06000        2.6757646E-16
   60.25000        3.4921911E-16
   60.44000        4.2111987E-16
   60.63000        4.7929698E-16
   60.82000        5.2073558E-16
   61.01000        5.4371638E-16
   61.20000        5.4790406E-16
   61.39000        5.3416561E-16
   61.58000        5.0416687E-16
   61.77000        4.5985800E-16
   61.96000        4.0298641E-16
   62.15000        3.3475491E-16
   62.34000        2.5569550E-16
   62.53000        1.6576486E-16
   62.72000        6.4620825E-17
   62.91000       -4.7989320E-17
   63.10000       -1.7180019E-16
   63.29000       -3.0562150E-16
   63.48000       -4.4700644E-16
   63.67000       -5.9204167E-16
   63.86000       -7.3530369E-16
   64.05000       -8.7001210E-16
   64.24000       -9.8838686E-16
   64.43000       -1.0821760E-15
   64.62000       -1.1432834E-15
   64.81000       -1.1644049E-15
   65.00000       -1.1395879E-15
   65.19000       -1.0646661E-15
   65.38000       -9.3757389E-16
   65.57000       -7.5857682E-16
   65.76000       -5.3046714E-16
   65.95000       -2.5873730E-16
   66.14000        4.8307176E-17
   66.33000        3.7958617E-16
   66.52000        7.2153930E-16
   66.71000        1.0587482E-15
   66.90000        1.3748802E-15
   67.09000        1.6538553E-15
   67.28000        1.8810704E-15
   67.47000        2.0444900E-15
   67.66000        2.1354474E-15
   67.85000        2.1490823E-15
   68.04000        2.0844138E-15
   68.23000        1.9441181E-15
   68.42000        1.7340990E-15
   68.61000        1.4629283E-15
   68.80000        1.1411981E-15
   68.99000        7.8081795E-16
   69.18000        3.9427841E-16
   69.37000       -6.0701541E-18
   69.56000       -4.0865544E-16
   69.75000       -8.0316098E-16
   69.94000       -1.1807915E-15
   70.13000       -1.5343116E-15
   70.32000       -1.8578960E-15
   70.51000       -2.1468558E-15
   70.70000       -2.3973048E-15
   70.89000       -2.6058160E-15
   71.08000       -2.7690680E-15
   71.27000       -2.8834814E-15
   71.46000       -2.9448424E-15
   71.65000       -2.9479671E-15
   71.84000       -2.8865024E-15
   72.03000       -2.7530000E-15
   72.22000       -2.5394020E-15
   72.41000       -2.2380069E-15
   72.60000       -1.8428959E-15
   72.79000       -1.3516702E-15
   72.98000       -7.6723805E-16
   73.17000       -9.9319556E-17
   73.36000        6.3467300E-16
   73.55000        1.4096642E-15
   73.74000        2.1940044E-15
   73.93000        2.9515962E-15
   74.12000        3.6448353E-15
   74.31000        4.2379680E-15
   74.50000        4.7003612E-15
   74.69000        5.0091856E-15
   74.88000        5.1511140E-15
   75.07000        5.1228587E-15
   75.26000        4.9306152E-15
   75.45000        4.5886849E-15
   75.64000        4.1176542E-15
   75.83000        3.5424826E-15
   76.02000        2.8907024E-15
   76.21000        2.1907537E-15
   76.40000        1.4703422E-15
   76.59000        7.5469302E-16
   76.78000        6.4695410E-17
   76.97000       -5.8486381E-16
   77.16000       -1.1865823E-15
   77.35000       -1.7407755E-15
   77.54000       -2.2545038E-15
   77.73000       -2.7392345E-15
   77.92000       -3.2074444E-15
   78.11000       -3.6688110E-15
   78.30000       -4.1268136E-15
   78.49000       -4.5765084E-15
   78.68000       -5.0039543E-15
   78.87000       -5.3873883E-15
   79.06000       -5.6998384E-15
   79.25000       -5.9125936E-15
   79.44000       -5.9988432E-15
   79.63000       -5.9368806E-15
   79.82000       -5.7124423E-15
   80.01000       -5.3199958E-15
   80.20000       -4.7629899E-15
   80.39000       -4.0532212E-15
   80.58000       -3.2095599E-15
   80.77000       -2.2563113E-15
   80.96000       -1.2214654E-15
   81.15000       -1.3505796E-16
   81.34000        9.7223469E-16
   81.53000        2.0702317E-15
   81.72000        3.1302077E-15
   81.91000        4.1258111E-15
   82.10000        5.0340858E-15
   82.29000        5.8366296E-15
   82.48000        6.5207705E-15
   82.67000        7.0804814E-15
   82.86000        7.5166813E-15
   83.05000        7.8365862E-15
   83.24000        8.0519613E-15
   83.43000        8.1763599E-15
   83.62000        8.2217058E-15
   83.81000        8.1947727E-15
   84.00000        8.0941596E-15
   84.19000        7.9083273E-15
   84.38000        7.6150837E-15
   84.57000        7.1826759E-15
   84.76000        6.5724632E-15
   84.95000        5.7429079E-15
   85.14000        4.6544901E-15
   85.33000        3.2750036E-15
   85.52000        1.5846303E-15
   85.71000       -4.1981761E-16
   85.90000       -2.7220187E-15
   86.09000       -5.2849388E-15
   86.28000       -8.0513844E-15
   86.47000       -1.0946094E-14
   86.66000       -1.3878962E-14
   86.85000       -1.6748877E-14
   87.04000       -1.9447758E-14
   87.23000       -2.1864495E-14
   87.42000       -2.3888726E-14
   87.61000       -2.5414532E-14
   87.80000       -2.6344212E-14
   87.99000       -2.6592166E-14
   88.18000       -2.6088876E-14
   88.37000       -2.4784730E-14
   88.56000       -2.2653337E-14
   88.75000       -1.9693906E-14
   88.94000       -1.5932295E-14
   89.13000       -1.1420430E-14
   89.32000       -6.2339969E-15
   89.51000       -4.6860049E-16
   89.70000        5.7651125E-15
   89.89000        1.2346545E-14
   90.08000        1.9149496E-14
   90.27000        2.6044832E-14
   90.46000        3.2900955E-14
   90.65000        3.9582168E-14
   90.84000        4.5945828E-14
   91.03000        5.1839697E-14
   91.22000        5.7101330E-14
   91.41000        6.1560816E-14
   91.60000        6.5047428E-14
   91.79000        6.7399618E-14
   91.98000        6.8476651E-14
   92.17000        6.8169517E-14
   92.36000        6.6408955E-14
   92.55000        6.3169122E-14
   92.74000        5.8466693E-14
   92.93000        5.2356333E-14
   93.12000        4.4924503E-14
   93.31000        3.6283466E-14
   93.50000        2.6567021E-14
   93.69000        1.5928439E-14
   93.88000        4.5401008E-15
   94.07000       -7.4063629E-15
   94.26000       -1.9700811E-14
   94.45000       -3.2117216E-14
   94.64000       -4.4418516E-14
   94.83000       -5.6363314E-14
   95.02000       -6.7713481E-14
   95.21000       -7.8241626E-14
   95.40000       -8.7737502E-14
   95.59000       -9.6012838E-14
   95.78000       -1.0290449E-13
   95.97000       -1.0827629E-13
   96.16000       -1.1202008E-13
   96.35000       -1.1405658E-13
   96.54000       -1.1433648E-13
   96.73000       -1.1284196E-13
   96.92000       -1.0958871E-13
   97.11000       -1.0462766E-13
   97.30000       -9.8046036E-14
   97.49000       -8.9966771E-14
   97.68000       -8.0545779E-14
   97.87000       -6.9966683E-14
   98.06000       -5.8433334E-14
   98.25000       -4.6160643E-14
   98.44000       -3.3365021E-14
   98.63000       -2.0255394E-14
   98.82000       -7.0260693E-15
   99.01000        6.1477122E-15
   99.20000        1.9111142E-14
   99.39000        3.1728048E-14
   99.58000        4.3876439E-14
   99.77000        5.5442603E-14
   99.96000        6.6314989E-14
   100.1500        7.6379807E-14
   100.3400        8.5520099E-14
   100.5300        9.3619116E-14
   100.7200        1.0056840E-13
   100.9100        1.0627888E-13
   101.1000        1.1069243E-13
   101.2900        1.1379072E-13
   101.4800        1.1559793E-13
   101.6700        1.1617577E-13
   101.8600        1.1561094E-13
   102.0500        1.1399753E-13
   102.2400        1.1141831E-13
   102.4300        1.0792970E-13
   102.6200        1.0355335E-13
   102.8100        9.8276469E-14
   103.0000        9.2059125E-14
   103.1900        8.4845949E-14
   103.3800        7.6577728E-14
   103.5700        6.7199549E-14
   103.7600        5.6662859E-14
   103.9500        4.4921745E-14
   104.1400        3.1924956E-14
   104.3300        1.7606888E-14
   104.5200        1.8805904E-15
   104.7100       -1.5364708E-14
   104.9000       -3.4260853E-14
   105.0900       -5.4953234E-14
   105.2800       -7.7590807E-14
   105.4700       -1.0231626E-13
   105.6600       -1.2925953E-13
   105.8500       -1.5853669E-13
   106.0400       -1.9025515E-13
   106.2300       -2.2452468E-13
   106.4200       -2.6147173E-13
   106.6100       -3.0125419E-13
   106.8000       -3.4407221E-13
   106.9900       -3.9017344E-13
   107.1800       -4.3985052E-13
   107.3700       -4.9343185E-13
   107.5600       -5.5126867E-13
   107.7500       -6.1372180E-13
   107.9400       -6.8115218E-13
   108.1300       -7.5391733E-13
   108.3200       -8.3237421E-13
   108.5100       -9.1688918E-13
   108.7000       -1.0078495E-12
   108.8900       -1.1056761E-12
   109.0800       -1.2108319E-12
   109.2700       -1.3238279E-12
   109.4600       -1.4452226E-12
   109.6500       -1.5756202E-12
   109.8400       -1.7156643E-12
   110.0300       -1.8660351E-12
   110.2200       -2.0274444E-12
   110.4100       -2.2006381E-12
   110.6000       -2.3863977E-12
   110.7900       -2.5855466E-12
   110.9800       -2.7989553E-12
   111.1700       -3.0275467E-12
   111.3600       -3.2722941E-12
   111.5500       -3.5342129E-12
   111.7400       -3.8143429E-12
   111.9300       -4.1137246E-12
   112.1200       -4.4333677E-12
   112.3100       -4.7742262E-12
   112.5000       -5.1371732E-12
   112.6900       -5.5229883E-12
   112.8800       -5.9323562E-12
   113.0700       -6.3658770E-12
   113.2600       -6.8240812E-12
   113.4500       -7.3074480E-12
   113.6400       -7.8164281E-12
   113.8300       -8.3514480E-12
   114.0200       -8.9129260E-12
   114.2100       -9.5012635E-12
   114.4000       -1.0116841E-11
   114.5900       -1.0760013E-11
   114.7800       -1.1431094E-11
   114.9700       -1.2130351E-11
   115.1600       -1.2858012E-11
   115.3500       -1.3614266E-11
   115.5400       -1.4399275E-11
   115.7300       -1.5213197E-11
   115.9200       -1.6056207E-11
   116.1100       -1.6928507E-11
   116.3000       -1.7830345E-11
   116.4900       -1.8762011E-11
   116.6800       -1.9723830E-11
   116.8700       -2.0716144E-11
   117.0600       -2.1739303E-11
   117.2500       -2.2793645E-11
   117.4400       -2.3879506E-11
   117.6300       -2.4997223E-11
   117.8200       -2.6147156E-11
   118.0100       -2.7329701E-11
   118.2000       -2.8545295E-11
   118.3900       -2.9794413E-11
   118.5800       -3.1077547E-11
   118.7700       -3.2395153E-11
   118.9600       -3.3747619E-11
   119.1500       -3.5135225E-11
   119.3400       -3.6558118E-11
   119.5300       -3.8016278E-11
   119.7200       -3.9509545E-11
   119.9100       -4.1037635E-11
   120.1000       -4.2600156E-11
   120.2900       -4.4196657E-11
   120.4800       -4.5826652E-11
   120.6700       -4.7489606E-11
   120.8600       -4.9184986E-11
   121.0500       -5.0912229E-11
   121.2400       -5.2670718E-11
   121.4300       -5.4459798E-11
   121.6200       -5.6278742E-11
   121.8100       -5.8126767E-11
   122.0000       -6.0003037E-11
   122.1900       -6.1906660E-11
   122.3800       -6.3836741E-11
   122.5700       -6.5792378E-11
   122.7600       -6.7772669E-11
   122.9500       -6.9776747E-11
   123.1400       -7.1803785E-11
   123.3300       -7.3853014E-11
   123.5200       -7.5923740E-11
   123.7100       -7.8015344E-11
   123.9000       -8.0127308E-11
   124.0900       -8.2259165E-11
   124.2800       -8.4410548E-11
   124.4700       -8.6581145E-11
   124.6600       -8.8770685E-11
   124.8500       -9.0978891E-11
   125.0400       -9.3205478E-11
   125.2300       -9.5450085E-11
   125.4200       -9.7712290E-11
   125.6100       -9.9991529E-11
   125.8000       -1.0228710E-10
   125.9900       -1.0459807E-10
   126.1800       -1.0692329E-10
   126.3700       -1.0926135E-10
   126.5600       -1.1161052E-10
   126.7500       -1.1396882E-10
   126.9400       -1.1633399E-10
   127.1300       -1.1870356E-10
   127.3200       -1.2107487E-10
   127.5100       -1.2344516E-10
   127.7000       -1.2581151E-10
   127.8900       -1.2817093E-10
   128.0800       -1.3052030E-10
   128.2700       -1.3285638E-10
   128.4600       -1.3517576E-10
   128.6500       -1.3747493E-10
   128.8400       -1.3975029E-10
   129.0300       -1.4199820E-10
   129.2200       -1.4421499E-10
   129.4100       -1.4639710E-10
   129.6000       -1.4854110E-10
   129.7900       -1.5064373E-10
   129.9800       -1.5270196E-10
   130.1700       -1.5471294E-10
   130.3600       -1.5667403E-10
   130.5500       -1.5858286E-10
   130.7400       -1.6043722E-10
   130.9300       -1.6223514E-10
   131.1200       -1.6397486E-10
   131.3100       -1.6565477E-10
   131.5000       -1.6727346E-10
   131.6900       -1.6882966E-10
   131.8800       -1.7032219E-10
   132.0700       -1.7174995E-10
   132.2600       -1.7311187E-10
   132.4500       -1.7440688E-10
   132.6400       -1.7563379E-10
   132.8300       -1.7679136E-10
   133.0200       -1.7787818E-10
   133.2100       -1.7889266E-10
   133.4000       -1.7983305E-10
   133.5900       -1.8069735E-10
   133.7800       -1.8148333E-10
   133.9700       -1.8218849E-10
   134.1600       -1.8281010E-10
   134.3500       -1.8334519E-10
   134.5400       -1.8379048E-10
   134.7300       -1.8414258E-10
   134.9200       -1.8439780E-10
   135.1100       -1.8455240E-10
   135.3000       -1.8460249E-10
   135.4900       -1.8454409E-10
   135.6800       -1.8437325E-10
   135.8700       -1.8408598E-10
   136.0600       -1.8367842E-10
   136.2500       -1.8314678E-10
   136.4400       -1.8248757E-10
   136.6300       -1.8169757E-10
   136.8200       -1.8077390E-10
   137.0100       -1.7971406E-10
   137.2000       -1.7851597E-10
   137.3900       -1.7717798E-10
   137.5800       -1.7569877E-10
   137.7700       -1.7407739E-10
   137.9600       -1.7231319E-10
   138.1500       -1.7040576E-10
   138.3400       -1.6835490E-10
   138.5300       -1.6616057E-10
   138.7200       -1.6382284E-10
   138.9100       -1.6134191E-10
   139.1000       -1.5871798E-10
   139.2900       -1.5595128E-10
   139.4800       -1.5304205E-10
   139.6700       -1.4999051E-10
   139.8600       -1.4679684E-10
   140.0500       -1.4346115E-10
   140.2400       -1.3998344E-10
   140.4300       -1.3636356E-10
   140.6200       -1.3260118E-10
   140.8100       -1.2869576E-10
   141.0000       -1.2464650E-10
   141.1900       -1.2045233E-10
   141.3800       -1.1611193E-10
   141.5700       -1.1162372E-10
   141.7600       -1.0698589E-10
   141.9500       -1.0219640E-10
   142.1400       -9.7253039E-11
   142.3300       -9.2153431E-11
   142.5200       -8.6895144E-11