  -30.00000        9.8466769E-18
  -29.81000        9.8466769E-18
  -29.62000        9.8466769E-18
  -29.43000        9.8466769E-18
  -29.24000        9.8466769E-18
  -29.05000        9.8466778E-18
  -28.86000        9.8466786E-18
  -28.67000        9.8466786E-18
  -28.48000        9.8466786E-18
  -28.29000        9.8466786E-18
  -28.10000        9.8466778E-18
  -27.91000        9.8466769E-18
  -27.72000        9.8466753E-18
  -27.53000        9.8466745E-18
  -27.34000        9.8466745E-18
  -27.15000        9.8466745E-18
  -26.96000        9.8466753E-18
  -26.77000        9.8466769E-18
  -26.58000        9.8466778E-18
  -26.39000        9.8466794E-18
  -26.20000        9.8466803E-18
  -26.01000        9.8466794E-18
  -25.82000        9.8466786E-18
  -25.63000        9.8466769E-18
  -25.44000        9.8466753E-18
  -25.25000        9.8466745E-18
  -25.06000        9.8466728E-18
  -24.87000        9.8466728E-18
  -24.68000        9.8466745E-18
  -24.49000        9.8466769E-18
  -24.30000        9.8466786E-18
  -24.11000        9.8466794E-18
  -23.92000        9.8466803E-18
  -23.73000        9.8466794E-18
  -23.54000        9.8466769E-18
  -23.35000        9.8466753E-18
  -23.16000        9.8466728E-18
  -22.97000        9.8466728E-18
  -22.78000        9.8466728E-18
  -22.59000        9.8466736E-18
  -22.40000        9.8466761E-18
  -22.21000        9.8466794E-18
  -22.02000        9.8466819E-18
  -21.83000        9.8466827E-18
  -21.64000        9.8466811E-18
  -21.45000        9.8466794E-18
  -21.26000        9.8466769E-18
  -21.07000        9.8466745E-18
  -20.88000        9.8466736E-18
  -20.69000        9.8466736E-18
  -20.50000        9.8466745E-18
  -20.31000        9.8466761E-18
  -20.12000        9.8466778E-18
  -19.93000        9.8466794E-18
  -19.74000        9.8466803E-18
  -19.55000        9.8466786E-18
  -19.36000        9.8466769E-18
  -19.17000        9.8466745E-18
  -18.98000        9.8466720E-18
  -18.79000        9.8466703E-18
  -18.60000        9.8466695E-18
  -18.41000        9.8466695E-18
  -18.22000        9.8466720E-18
  -18.03000        9.8466753E-18
  -17.84000        9.8466778E-18
  -17.65000        9.8466803E-18
  -17.46000        9.8466819E-18
  -17.27000        9.8466819E-18
  -17.08000        9.8466803E-18
  -16.89000        9.8466786E-18
  -16.70000        9.8466769E-18
  -16.51000        9.8466761E-18
  -16.32000        9.8466753E-18
  -16.13000        9.8466769E-18
  -15.94000        9.8466786E-18
  -15.75000        9.8466803E-18
  -15.56000        9.8466819E-18
  -15.37000        9.8466827E-18
  -15.18000        9.8466819E-18
  -14.99000        9.8466811E-18
  -14.80000        9.8466786E-18
  -14.61000        9.8466753E-18
  -14.42000        9.8466728E-18
  -14.23000        9.8466712E-18
  -14.04000        9.8466720E-18
  -13.85000        9.8466728E-18
  -13.66000        9.8466753E-18
  -13.47000        9.8466778E-18
  -13.28000        9.8466794E-18
  -13.09000        9.8466803E-18
  -12.90000        9.8466794E-18
  -12.71000        9.8466786E-18
  -12.52000        9.8466761E-18
  -12.33000        9.8466745E-18
  -12.14000        9.8466728E-18
  -11.95000        9.8466720E-18
  -11.76000        9.8466720E-18
  -11.57000        9.8466736E-18
  -11.38000        9.8466745E-18
  -11.19000        9.8466761E-18
  -11.00000        9.8466778E-18
  -10.81000        9.8466786E-18
  -10.62000        9.8466778E-18
  -10.43000        9.8466753E-18
  -10.24000        9.8466736E-18
  -10.05000        9.8466720E-18
  -9.860000        9.8466712E-18
  -9.670000        9.8466712E-18
  -9.480000        9.8466728E-18
  -9.290000        9.8466753E-18
  -9.100000        9.8466794E-18
  -8.910000        9.8466819E-18
  -8.720000        9.8466827E-18
  -8.530000        9.8466819E-18
  -8.340000        9.8466803E-18
  -8.150000        9.8466778E-18
  -7.960000        9.8466745E-18
  -7.770000        9.8466712E-18
  -7.580000        9.8466687E-18
  -7.390000        9.8466695E-18
  -7.200000        9.8466703E-18
  -7.010000        9.8466736E-18
  -6.820000        9.8466769E-18
  -6.630000        9.8466794E-18
  -6.440000        9.8466819E-18
  -6.250000        9.8466827E-18
  -6.060000        9.8466819E-18
  -5.870000        9.8466803E-18
  -5.680000        9.8466769E-18
  -5.490000        9.8466745E-18
  -5.300000        9.8466736E-18
  -5.110000        9.8466745E-18
  -4.920000        9.8466769E-18
  -4.730000        9.8466803E-18
  -4.540000        9.8466827E-18
  -4.350000        9.8466844E-18
  -4.160000        9.8466844E-18
  -3.970000        9.8466819E-18
  -3.780000        9.8466794E-18
  -3.590000        9.8466753E-18
  -3.400000        9.8466736E-18
  -3.210000        9.8466728E-18
  -3.020000        9.8466745E-18
  -2.830000        9.8466778E-18
  -2.640000        9.8466811E-18
  -2.450000        9.8466836E-18
  -2.260000        9.8466844E-18
  -2.070000        9.8466827E-18
  -1.880000        9.8466794E-18
  -1.690000        9.8466745E-18
  -1.500000        9.8466695E-18
  -1.310000        9.8466670E-18
  -1.120000        9.8466654E-18
 -0.9300000        9.8466670E-18
 -0.7400000        9.8466695E-18
 -0.5500000        9.8466736E-18
 -0.3600000        9.8466769E-18
 -0.1700000        9.8466794E-18
  2.0000000E-02    9.8466811E-18
  0.2100000        9.8466803E-18
  0.4000000        9.8466786E-18
  0.5900000        9.8466761E-18
  0.7800000        9.8466745E-18
  0.9700000        9.8466745E-18
   1.160000        9.8466753E-18
   1.350000        9.8466786E-18
   1.540000        9.8466819E-18
   1.730000        9.8466860E-18
   1.920000        9.8466885E-18
   2.110000        9.8466885E-18
   2.300000        9.8466869E-18
   2.490000        9.8466827E-18
   2.680000        9.8466769E-18
   2.870000        9.8466720E-18
   3.060000        9.8466687E-18
   3.250000        9.8466662E-18
   3.440000        9.8466670E-18
   3.630000        9.8466678E-18
   3.820000        9.8466703E-18
   4.010000        9.8466728E-18
   4.200000        9.8466745E-18
   4.390000        9.8466745E-18
   4.580000        9.8466745E-18
   4.770000        9.8466736E-18
   4.960000        9.8466736E-18
   5.150000        9.8466728E-18
   5.340000        9.8466736E-18
   5.530000        9.8466745E-18
   5.720000        9.8466761E-18
   5.910000        9.8466778E-18
   6.100000        9.8466803E-18
   6.290000        9.8466819E-18
   6.480000        9.8466844E-18
   6.670000        9.8466844E-18
   6.860000        9.8466827E-18
   7.050000        9.8466811E-18
   7.240000        9.8466778E-18
   7.430000        9.8466745E-18
   7.620000        9.8466720E-18
   7.810000        9.8466712E-18
   8.000000        9.8466728E-18
   8.190000        9.8466753E-18
   8.380000        9.8466794E-18
   8.570000        9.8466836E-18
   8.760000        9.8466869E-18
   8.950000        9.8466885E-18
   9.140000        9.8466885E-18
   9.330000        9.8466860E-18
   9.520000        9.8466827E-18
   9.710000        9.8466786E-18
   9.900000        9.8466761E-18
   10.09000        9.8466761E-18
   10.28000        9.8466769E-18
   10.47000        9.8466778E-18
   10.66000        9.8466786E-18
   10.85000        9.8466786E-18
   11.04000        9.8466769E-18
   11.23000        9.8466736E-18
   11.42000        9.8466703E-18
   11.61000        9.8466678E-18
   11.80000        9.8466662E-18
   11.99000        9.8466662E-18
   12.18000        9.8466678E-18
   12.37000        9.8466712E-18
   12.56000        9.8466761E-18
   12.75000        9.8466811E-18
   12.94000        9.8466852E-18
   13.13000        9.8466877E-18
   13.32000        9.8466885E-18
   13.51000        9.8466860E-18
   13.70000        9.8466827E-18
   13.89000        9.8466778E-18
   14.08000        9.8466745E-18
   14.27000        9.8466728E-18
   14.46000        9.8466728E-18
   14.65000        9.8466745E-18
   14.84000        9.8466769E-18
   15.03000        9.8466778E-18
   15.22000        9.8466778E-18
   15.41000        9.8466761E-18
   15.60000        9.8466728E-18
   15.79000        9.8466678E-18
   15.98000        9.8466637E-18
   16.17000        9.8466612E-18
   16.36000        9.8466612E-18
   16.55000        9.8466637E-18
   16.74000        9.8466687E-18
   16.93000        9.8466736E-18
   17.12000        9.8466769E-18
   17.31000        9.8466786E-18
   17.50000        9.8466786E-18
   17.69000        9.8466769E-18
   17.88000        9.8466745E-18
   18.07000        9.8466728E-18
   18.26000        9.8466720E-18
   18.45000        9.8466736E-18
   18.64000        9.8466769E-18
   18.83000        9.8466811E-18
   19.02000        9.8466844E-18
   19.21000        9.8466877E-18
   19.40000        9.8466877E-18
   19.59000        9.8466852E-18
   19.78000        9.8466803E-18
   19.97000        9.8466736E-18
   20.16000        9.8466662E-18
   20.35000        9.8466612E-18
   20.54000        9.8466596E-18
   20.73000        9.8466612E-18
   20.92000        9.8466662E-18
   21.11000        9.8466736E-18
   21.30000        9.8466811E-18
   21.49000        9.8466869E-18
   21.68000        9.8466894E-18
   21.87000        9.8466894E-18
   22.06000        9.8466860E-18
   22.25000        9.8466836E-18
   22.44000        9.8466811E-18
   22.63000        9.8466794E-18
   22.82000        9.8466811E-18
   23.01000        9.8466844E-18
   23.20000        9.8466877E-18
   23.39000        9.8466910E-18
   23.58000        9.8466918E-18
   23.77000        9.8466902E-18
   23.96000        9.8466844E-18
   24.15000        9.8466778E-18
   24.34000        9.8466712E-18
   24.53000        9.8466654E-18
   24.72000        9.8466629E-18
   24.91000        9.8466629E-18
   25.10000        9.8466645E-18
   25.29000        9.8466687E-18
   25.48000        9.8466720E-18
   25.67000        9.8466753E-18
   25.86000        9.8466769E-18
   26.05000        9.8466761E-18
   26.24000        9.8466736E-18
   26.43000        9.8466712E-18
   26.62000        9.8466687E-18
   26.81000        9.8466670E-18
   27.00000        9.8466687E-18
   27.19000        9.8466728E-18
   27.38000        9.8466761E-18
   27.57000        9.8466803E-18
   27.76000        9.8466819E-18
   27.95000        9.8466811E-18
   28.14000        9.8466794E-18
   28.33000        9.8466753E-18
   28.52000        9.8466720E-18
   28.71000        9.8466703E-18
   28.90000        9.8466695E-18
   29.09000        9.8466720E-18
   29.28000        9.8466753E-18
   29.47000        9.8466803E-18
   29.66000        9.8466844E-18
   29.85000        9.8466860E-18
   30.04000        9.8466860E-18
   30.23000        9.8466844E-18
   30.42000        9.8466811E-18
   30.61000        9.8466778E-18
   30.80000        9.8466761E-18
   30.99000        9.8466745E-18
   31.18000        9.8466745E-18
   31.37000        9.8466753E-18
   31.56000        9.8466769E-18
   31.75000        9.8466786E-18
   31.94000        9.8466794E-18
   32.13000        9.8466794E-18
   32.32000        9.8466778E-18
   32.51000        9.8466761E-18
   32.70000        9.8466745E-18
   32.89000        9.8466736E-18
   33.08000        9.8466753E-18
   33.27000        9.8466778E-18
   33.46000        9.8466827E-18
   33.65000        9.8466877E-18
   33.84000        9.8466927E-18
   34.03000        9.8466943E-18
   34.22000        9.8466935E-18
   34.41000        9.8466902E-18
   34.60000        9.8466844E-18
   34.79000        9.8466786E-18
   34.98000        9.8466736E-18
   35.17000        9.8466712E-18
   35.36000        9.8466695E-18
   35.55000        9.8466712E-18
   35.74000        9.8466728E-18
   35.93000        9.8466736E-18
   36.12000        9.8466745E-18
   36.31000        9.8466736E-18
   36.50000        9.8466720E-18
   36.69000        9.8466687E-18
   36.88000        9.8466662E-18
   37.07000        9.8466637E-18
   37.26000        9.8466629E-18
   37.45000        9.8466629E-18
   37.64000        9.8466654E-18
   37.83000        9.8466678E-18
   38.02000        9.8466703E-18
   38.21000        9.8466736E-18
   38.40000        9.8466753E-18
   38.59000        9.8466769E-18
   38.78000        9.8466769E-18
   38.97000        9.8466769E-18
   39.16000        9.8466769E-18
   39.35000        9.8466778E-18
   39.54000        9.8466786E-18
   39.73000        9.8466803E-18
   39.92000        9.8466819E-18
   40.11000        9.8466827E-18
   40.30000        9.8466819E-18
   40.49000        9.8466803E-18
   40.68000        9.8466769E-18
   40.87000        9.8466745E-18
   41.06000        9.8466728E-18
   41.25000        9.8466720E-18
   41.44000        9.8466728E-18
   41.63000        9.8466753E-18
   41.82000        9.8466778E-18
   42.01000        9.8466803E-18
   42.20000        9.8466803E-18
   42.39000        9.8466786E-18
   42.58000        9.8466753E-18
   42.77000        9.8466720E-18
   42.96000        9.8466687E-18
   43.15000        9.8466695E-18
   43.34000        9.8466728E-18
   43.53000        9.8466778E-18
   43.72000        9.8466844E-18
   43.91000        9.8466902E-18
   44.10000        9.8466935E-18
   44.29000        9.8466943E-18
   44.48000        9.8466927E-18
   44.67000        9.8466877E-18
   44.86000        9.8466827E-18
   45.05000        9.8466769E-18
   45.24000        9.8466720E-18
   45.43000        9.8466712E-18
   45.62000        9.8466720E-18
   45.81000        9.8466761E-18
   46.00000        9.8466794E-18
   46.19000        9.8466827E-18
   46.38000        9.8466836E-18
   46.57000        9.8466803E-18
   46.76000        9.8466753E-18
   46.95000        9.8466687E-18
   47.14000        9.8466621E-18
   47.33000        9.8466563E-18
   47.52000        9.8466546E-18
   47.71000        9.8466571E-18
   47.90000        9.8466621E-18
   48.09000        9.8466678E-18
   48.28000        9.8466728E-18
   48.47000        9.8466761E-18
   48.66000        9.8466769E-18
   48.85000        9.8466761E-18
   49.04000        9.8466736E-18
   49.23000        9.8466720E-18
   49.42000        9.8466712E-18
   49.61000        9.8466720E-18
   49.80000        9.8466753E-18
   49.99000        9.8466794E-18
   50.18000        9.8466819E-18
   50.37000        9.8466819E-18
   50.56000        9.8466803E-18
   50.75000        9.8466769E-18
   50.94000        9.8466720E-18
   51.13000        9.8466662E-18
   51.32000        9.8466612E-18
   51.51000        9.8466571E-18
   51.70000        9.8466554E-18
   51.89000        9.8466546E-18
   52.08000        9.8466554E-18
   52.27000        9.8466571E-18
   52.46000        9.8466579E-18
   52.65000        9.8466588E-18
   52.84000        9.8466588E-18
   53.03000        9.8466596E-18
   53.22000        9.8466604E-18
   53.41000        9.8466629E-18
   53.60000        9.8466670E-18
   53.79000        9.8466728E-18
   53.98000        9.8466803E-18
   54.17000        9.8466877E-18
   54.36000        9.8466951E-18
   54.55000        9.8467001E-18
   54.74000        9.8467018E-18
   54.93000        9.8467018E-18
   55.12000        9.8466993E-18
   55.31000        9.8466960E-18
   55.50000        9.8466935E-18
   55.69000        9.8466935E-18
   55.88000        9.8466951E-18
   56.07000        9.8466985E-18
   56.26000        9.8467009E-18
   56.45000        9.8467018E-18
   56.64000        9.8467009E-18
   56.83000        9.8466968E-18
   57.02000        9.8466927E-18
   57.21000        9.8466877E-18
   57.40000        9.8466852E-18
   57.59000        9.8466836E-18
   57.78000        9.8466844E-18
   57.97000        9.8466860E-18
   58.16000        9.8466860E-18
   58.35000        9.8466860E-18
   58.54000        9.8466852E-18
   58.73000        9.8466827E-18
   58.92000        9.8466803E-18
   59.11000        9.8466761E-18
   59.30000        9.8466728E-18
   59.49000        9.8466703E-18
   59.68000        9.8466670E-18
   59.87000        9.8466654E-18
   60.06000        9.8466637E-18
   60.25000        9.8466637E-18
   60.44000        9.8466637E-18
   60.63000        9.8466637E-18
   60.82000        9.8466621E-18
   61.01000        9.8466604E-18
   61.20000        9.8466571E-18
   61.39000        9.8466546E-18
   61.58000        9.8466530E-18
   61.77000        9.8466521E-18
   61.96000        9.8466538E-18
   62.15000        9.8466571E-18
   62.34000        9.8466621E-18
   62.53000        9.8466662E-18
   62.72000        9.8466695E-18
   62.91000        9.8466728E-18
   63.10000        9.8466745E-18
   63.29000        9.8466769E-18
   63.48000        9.8466803E-18
   63.67000        9.8466844E-18
   63.86000        9.8466885E-18
   64.05000        9.8466918E-18
   64.24000        9.8466935E-18
   64.43000        9.8466910E-18
   64.62000        9.8466860E-18
   64.81000        9.8466803E-18
   65.00000        9.8466736E-18
   65.19000        9.8466678E-18
   65.38000        9.8466654E-18
   65.57000        9.8466662E-18
   65.76000        9.8466695E-18
   65.95000        9.8466745E-18
   66.14000        9.8466778E-18
   66.33000        9.8466803E-18
   66.52000        9.8466786E-18
   66.71000        9.8466761E-18
   66.90000        9.8466712E-18
   67.09000        9.8466670E-18
   67.28000        9.8466645E-18
   67.47000        9.8466645E-18
   67.66000        9.8466678E-18
   67.85000        9.8466745E-18
   68.04000        9.8466819E-18
   68.23000        9.8466877E-18
   68.42000        9.8466927E-18
   68.61000        9.8466927E-18
   68.80000        9.8466902E-18
   68.99000        9.8466836E-18
   69.18000        9.8466761E-18
   69.37000        9.8466695E-18
   69.56000        9.8466654E-18
   69.75000        9.8466654E-18
   69.94000        9.8466695E-18
   70.13000        9.8466769E-18
   70.32000        9.8466844E-18
   70.51000        9.8466910E-18
   70.70000        9.8466927E-18
   70.89000        9.8466910E-18
   71.08000        9.8466860E-18
   71.27000        9.8466811E-18
   71.46000        9.8466769E-18
   71.65000        9.8466769E-18
   71.84000        9.8466811E-18
   72.03000        9.8466877E-18
   72.22000        9.8466960E-18
   72.41000        9.8467026E-18
   72.60000        9.8467051E-18
   72.79000        9.8467026E-18
   72.98000        9.8466960E-18
   73.17000        9.8466869E-18
   73.36000        9.8466769E-18
   73.55000        9.8466678E-18
   73.74000        9.8466621E-18
   73.93000        9.8466604E-18
   74.12000        9.8466621E-18
   74.31000        9.8466670E-18
   74.50000        9.8466736E-18
   74.69000        9.8466794E-18
   74.88000        9.8466836E-18
   75.07000        9.8466844E-18
   75.26000        9.8466827E-18
   75.45000        9.8466794E-18
   75.64000        9.8466778E-18
   75.83000        9.8466786E-18
   76.02000        9.8466827E-18
   76.21000        9.8466910E-18
   76.40000        9.8467001E-18
   76.59000        9.8467076E-18
   76.78000        9.8467109E-18
   76.97000        9.8467100E-18
   77.16000        9.8467034E-18
   77.35000        9.8466910E-18
   77.54000        9.8466769E-18
   77.73000        9.8466637E-18
   77.92000        9.8466546E-18
   78.11000        9.8466505E-18
   78.30000        9.8466513E-18
   78.49000        9.8466571E-18
   78.68000        9.8466629E-18
   78.87000        9.8466678E-18
   79.06000        9.8466695E-18
   79.25000        9.8466670E-18
   79.44000        9.8466612E-18
   79.63000        9.8466554E-18
   79.82000        9.8466505E-18
   80.01000        9.8466497E-18
   80.20000        9.8466513E-18
   80.39000        9.8466579E-18
   80.58000        9.8466662E-18
   80.77000        9.8466736E-18
   80.96000        9.8466794E-18
   81.15000        9.8466811E-18
   81.34000        9.8466786E-18
   81.53000        9.8466728E-18
   81.72000        9.8466654E-18
   81.91000        9.8466579E-18
   82.10000        9.8466521E-18
   82.29000        9.8466505E-18
   82.48000        9.8466530E-18
   82.67000        9.8466579E-18
   82.86000        9.8466645E-18
   83.05000        9.8466703E-18
   83.24000        9.8466745E-18
   83.43000        9.8466736E-18
   83.62000        9.8466712E-18
   83.81000        9.8466678E-18
   84.00000        9.8466645E-18
   84.19000        9.8466637E-18
   84.38000        9.8466670E-18
   84.57000        9.8466745E-18
   84.76000        9.8466844E-18
   84.95000        9.8466943E-18
   85.14000        9.8467026E-18
   85.33000        9.8467067E-18
   85.52000        9.8467076E-18
   85.71000        9.8467051E-18
   85.90000        9.8466993E-18
   86.09000        9.8466927E-18
   86.28000        9.8466852E-18
   86.47000        9.8466811E-18
   86.66000        9.8466786E-18
   86.85000        9.8466786E-18
   87.04000        9.8466811E-18
   87.23000        9.8466844E-18
   87.42000        9.8466869E-18
   87.61000        9.8466877E-18
   87.80000        9.8466852E-18
   87.99000        9.8466811E-18
   88.18000        9.8466753E-18
   88.37000        9.8466695E-18
   88.56000        9.8466637E-18
   88.75000        9.8466612E-18
   88.94000        9.8466596E-18
   89.13000        9.8466604E-18
   89.32000        9.8466637E-18
   89.51000        9.8466662E-18
   89.70000        9.8466678E-18
   89.89000        9.8466695E-18
   90.08000        9.8466703E-18
   90.27000        9.8466703E-18
   90.46000        9.8466703E-18
   90.65000        9.8466720E-18
   90.84000        9.8466745E-18
   91.03000        9.8466786E-18
   91.22000        9.8466836E-18
   91.41000        9.8466877E-18
   91.60000        9.8466910E-18
   91.79000        9.8466910E-18
   91.98000        9.8466894E-18
   92.17000        9.8466860E-18
   92.36000        9.8466819E-18
   92.55000        9.8466778E-18
   92.74000        9.8466745E-18
   92.93000        9.8466736E-18
   93.12000        9.8466745E-18
   93.31000        9.8466778E-18
   93.50000        9.8466819E-18
   93.69000        9.8466852E-18
   93.88000        9.8466885E-18
   94.07000        9.8466910E-18
   94.26000        9.8466902E-18
   94.45000        9.8466869E-18
   94.64000        9.8466819E-18
   94.83000        9.8466761E-18
   95.02000        9.8466703E-18
   95.21000        9.8466662E-18
   95.40000        9.8466629E-18
   95.59000        9.8466612E-18
   95.78000        9.8466612E-18
   95.97000        9.8466612E-18
   96.16000        9.8466612E-18
   96.35000        9.8466604E-18
   96.54000        9.8466596E-18
   96.73000        9.8466588E-18
   96.92000        9.8466596E-18
   97.11000        9.8466621E-18
   97.30000        9.8466645E-18
   97.49000        9.8466678E-18
   97.68000        9.8466720E-18
   97.87000        9.8466745E-18
   98.06000        9.8466769E-18
   98.25000        9.8466794E-18
   98.44000        9.8466811E-18
   98.63000        9.8466819E-18
   98.82000        9.8466827E-18
   99.01000        9.8466827E-18
   99.20000        9.8466827E-18
   99.39000        9.8466819E-18
   99.58000        9.8466811E-18
   99.77000        9.8466803E-18
   99.96000        9.8466794E-18
   100.1500        9.8466794E-18
   100.3400        9.8466794E-18
   100.5300        9.8466794E-18
   100.7200        9.8466794E-18
   100.9100        9.8466778E-18
   101.1000        9.8466745E-18
   101.2900        9.8466720E-18
   101.4800        9.8466687E-18
   101.6700        9.8466654E-18
   101.8600        9.8466629E-18
   102.0500        9.8466612E-18
   102.2400        9.8466604E-18
   102.4300        9.8466621E-18
   102.6200        9.8466654E-18
   102.8100        9.8466703E-18
   103.0000        9.8466753E-18
   103.1900        9.8466803E-18
   103.3800        9.8466836E-18
   103.5700        9.8466852E-18
   103.7600        9.8466844E-18
   103.9500        9.8466819E-18
   104.1400        9.8466803E-18
   104.3300        9.8466786E-18
   104.5200        9.8466786E-18
   104.7100        9.8466794E-18
   104.9000        9.8466819E-18
   105.0900        9.8466844E-18
   105.2800        9.8466869E-18
   105.4700        9.8466877E-18
   105.6600        9.8466852E-18
   105.8500        9.8466794E-18
   106.0400        9.8466728E-18
   106.2300        9.8466654E-18
   106.4200        9.8466588E-18
   106.6100        9.8466546E-18
   106.8000        9.8466530E-18
   106.9900        9.8466538E-18
   107.1800        9.8466571E-18
   107.3700        9.8466604E-18
   107.5600        9.8466637E-18
   107.7500        9.8466645E-18
   107.9400        9.8466645E-18
   108.1300        9.8466637E-18
   108.3200        9.8466629E-18
   108.5100        9.8466637E-18
   108.7000        9.8466678E-18
   108.8900        9.8466761E-18
   109.0800        9.8466869E-18
   109.2700        9.8466993E-18
   109.4600        9.8467117E-18
   109.6500        9.8467233E-18
   109.8400        9.8467332E-18
   110.0300        9.8467382E-18
   110.2200        9.8467406E-18
   110.4100        9.8467415E-18
   110.6000        9.8467415E-18
   110.7900        9.8467439E-18
   110.9800        9.8467489E-18
   111.1700        9.8467547E-18
   111.3600        9.8467588E-18
   111.5500        9.8467597E-18
   111.7400        9.8467539E-18
   111.9300        9.8467398E-18
   112.1200        9.8467175E-18
   112.3100        9.8466877E-18
   112.5000        9.8466538E-18
   112.6900        9.8466166E-18
   112.8800        9.8465802E-18
   113.0700        9.8465438E-18
   113.2600        9.8465090E-18
   113.4500        9.8464751E-18
   113.6400        9.8464445E-18
   113.8300        9.8464147E-18
   114.0200        9.8463891E-18
   114.2100        9.8463676E-18
   114.4000        9.8463527E-18
   114.5900        9.8463461E-18
   114.7800        9.8463502E-18
   114.9700        9.8463668E-18
   115.1600        9.8463990E-18
   115.3500        9.8464495E-18
   115.5400        9.8465181E-18
   115.7300        9.8466042E-18
   115.9200        9.8467042E-18
   116.1100        9.8468167E-18
   116.3000        9.8469350E-18
   116.4900        9.8470566E-18
   116.6800        9.8471782E-18
   116.8700        9.8472982E-18
   117.0600        9.8474131E-18
   117.2500        9.8475215E-18
   117.4400        9.8476175E-18
   117.6300        9.8476969E-18
   117.8200        9.8477548E-18
   118.0100        9.8477837E-18
   118.2000        9.8477796E-18
   118.3900        9.8477407E-18
   118.5800        9.8476629E-18
   118.7700        9.8475447E-18
   118.9600        9.8473834E-18
   119.1500        9.8471782E-18
   119.3400        9.8469284E-18
   119.5300        9.8466356E-18
   119.7200        9.8463055E-18
   119.9100        9.8459482E-18
   120.1000        9.8455743E-18
   120.2900        9.8451971E-18
   120.4800        9.8448274E-18
   120.6700        9.8444766E-18
   120.8600        9.8441524E-18
   121.0500        9.8438637E-18
   121.2400        9.8436222E-18
   121.4300        9.8434402E-18
   121.6200        9.8433343E-18
   121.8100        9.8433211E-18
   122.0000        9.8434137E-18
   122.1900        9.8436230E-18
   122.3800        9.8439539E-18
   122.5700        9.8444063E-18
   122.7600        9.8449746E-18
   122.9500        9.8456521E-18
   123.1400        9.8464271E-18
   123.3300        9.8472882E-18
   123.5200        9.8482196E-18
   123.7100        9.8492015E-18
   123.9000        9.8502107E-18
   124.0900        9.8512173E-18
   124.2800        9.8521942E-18
   124.4700        9.8531099E-18
   124.6600        9.8539363E-18
   124.8500        9.8546427E-18
   125.0400        9.8551953E-18
   125.2300        9.8555600E-18
   125.4200        9.8557023E-18
   125.6100        9.8555865E-18
   125.8000        9.8551837E-18
   125.9900        9.8544789E-18
   126.1800        9.8534698E-18
   126.3700        9.8521653E-18
   126.5600        9.8505895E-18
   126.7500        9.8487722E-18
   126.9400        9.8467464E-18
   127.1300        9.8445478E-18
   127.3200        9.8422135E-18
   127.5100        9.8397849E-18
   127.7000        9.8373124E-18
   127.8900        9.8348541E-18
   128.0800        9.8324800E-18
   128.2700        9.8302690E-18
   128.4600        9.8283028E-18
   128.6500        9.8266674E-18
   128.8400        9.8254482E-18
   129.0300        9.8247261E-18
   129.2200        9.8245739E-18
   129.4100        9.8250495E-18
   129.6000        9.8261910E-18
   129.7900        9.8280108E-18
   129.9800        9.8304998E-18
   130.1700        9.8336240E-18
   130.3600        9.8373348E-18
   130.5500        9.8415757E-18
   130.7400        9.8462873E-18
   130.9300        9.8514043E-18
   131.1200        9.8568496E-18
   131.3100        9.8625232E-18
   131.5000        9.8682978E-18
   131.6900        9.8740120E-18
   131.8800        9.8794780E-18
   132.0700        9.8844915E-18
   132.2600        9.8888508E-18
   132.4500        9.8923696E-18
   132.6400        9.8948908E-18
   132.8300        9.8962888E-18
   133.0200        9.8964666E-18
   133.2100        9.8953549E-18
   133.4000        9.8929023E-18
   133.5900        9.8890766E-18
   133.7800        9.8838670E-18
   133.9700        9.8772892E-18
   134.1600        9.8693930E-18
   134.3500        9.8602650E-18
   134.5400        9.8500353E-18
   134.7300        9.8388808E-18
   134.9200        9.8270306E-18
   135.1100        9.8147643E-18
   135.3000        9.8024112E-18
   135.4900        9.7903360E-18
   135.6800        9.7789275E-18
   135.8700        9.7685688E-18
   136.0600        9.7596154E-18
   136.2500        9.7523759E-18
   136.4400        9.7471043E-18
   136.6300        9.7440032E-18
   136.8200        9.7432330E-18
   137.0100        9.7449313E-18
   137.2000        9.7492227E-18
   137.3900        9.7562099E-18
   137.5800        9.7659665E-18
   137.7700        9.7785057E-18
   137.9600        9.7937523E-18
   138.1500        9.8115209E-18
   138.3400        9.8315040E-18
   138.5300        9.8532721E-18
   138.7200        9.8762999E-18
   138.9100        9.8999846E-18
   139.1000        9.9236842E-18
   139.2900        9.9467526E-18
   139.4800        9.9685620E-18
   139.6700        9.9885343E-18
   139.8600        1.0006147E-17
   140.0500        1.0020925E-17
   140.2400        1.0032444E-17
   140.4300        1.0040296E-17
   140.6200        1.0044090E-17
   140.8100        1.0043443E-17
   141.0000        1.0038005E-17
   141.1900        1.0027501E-17
   141.3800        1.0011782E-17
   141.5700        9.9908843E-18
   141.7600        9.9650622E-18
   141.9500        9.9347882E-18
   142.1400        9.9007266E-18
   142.3300        9.8636722E-18
   142.5200        9.8244820E-18