  -30.00000        8.3848419E-19
  -29.81000        8.3848419E-19
  -29.62000        8.3848419E-19
  -29.43000        8.3848419E-19
  -29.24000        8.3848414E-19
  -29.05000        8.3848424E-19
  -28.86000        8.3848435E-19
  -28.67000        8.3848435E-19
  -28.48000        8.3848435E-19
  -28.29000        8.3848435E-19
  -28.10000        8.3848424E-19
  -27.91000        8.3848419E-19
  -27.72000        8.3848409E-19
  -27.53000        8.3848404E-19
  -27.34000        8.3848404E-19
  -27.15000        8.3848398E-19
  -26.96000        8.3848404E-19
  -26.77000        8.3848414E-19
  -26.58000        8.3848435E-19
  -26.39000        8.3848440E-19
  -26.20000        8.3848409E-19
  -26.01000        8.3848321E-19
  -25.82000        8.3848316E-19
  -25.63000        8.3848274E-19
  -25.44000        8.3848300E-19
  -25.25000        8.3848347E-19
  -25.06000        8.3848450E-19
  -24.87000        8.3848538E-19
  -24.68000        8.3848590E-19
  -24.49000        8.3848595E-19
  -24.30000        8.3848564E-19
  -24.11000        8.3848409E-19
  -23.92000        8.3848233E-19
  -23.73000        8.3848176E-19
  -23.54000        8.3848212E-19
  -23.35000        8.3848279E-19
  -23.16000        8.3848440E-19
  -22.97000        8.3848543E-19
  -22.78000        8.3848533E-19
  -22.59000        8.3848414E-19
  -22.40000        8.3848228E-19
  -22.21000        8.3848047E-19
  -22.02000        8.3848016E-19
  -21.83000        8.3848104E-19
  -21.64000        8.3848367E-19
  -21.45000        8.3848610E-19
  -21.26000        8.3848745E-19
  -21.07000        8.3848698E-19
  -20.88000        8.3848538E-19
  -20.69000        8.3848311E-19
  -20.50000        8.3848192E-19
  -20.31000        8.3848269E-19
  -20.12000        8.3848419E-19
  -19.93000        8.3848647E-19
  -19.74000        8.3848786E-19
  -19.55000        8.3848781E-19
  -19.36000        8.3848522E-19
  -19.17000        8.3848166E-19
  -18.98000        8.3847943E-19
  -18.79000        8.3847959E-19
  -18.60000        8.3848192E-19
  -18.41000        8.3848585E-19
  -18.22000        8.3848946E-19
  -18.03000        8.3849107E-19
  -17.84000        8.3848952E-19
  -17.65000        8.3848626E-19
  -17.46000        8.3848274E-19
  -17.27000        8.3848052E-19
  -17.08000        8.3848135E-19
  -16.89000        8.3848419E-19
  -16.70000        8.3848755E-19
  -16.51000        8.3849029E-19
  -16.32000        8.3849101E-19
  -16.13000        8.3848905E-19
  -15.94000        8.3848466E-19
  -15.75000        8.3848057E-19
  -15.56000        8.3847840E-19
  -15.37000        8.3847949E-19
  -15.18000        8.3848248E-19
  -14.99000        8.3848610E-19
  -14.80000        8.3848869E-19
  -14.61000        8.3848941E-19
  -14.42000        8.3848786E-19
  -14.23000        8.3848610E-19
  -14.04000        8.3848466E-19
  -13.85000        8.3848435E-19
  -13.66000        8.3848522E-19
  -13.47000        8.3848605E-19
  -13.28000        8.3848621E-19
  -13.09000        8.3848486E-19
  -12.90000        8.3848145E-19
  -12.71000        8.3847731E-19
  -12.52000        8.3847468E-19
  -12.33000        8.3847395E-19
  -12.14000        8.3847618E-19
  -11.95000        8.3847980E-19
  -11.76000        8.3848362E-19
  -11.57000        8.3848559E-19
  -11.38000        8.3848517E-19
  -11.19000        8.3848373E-19
  -11.00000        8.3848181E-19
  -10.81000        8.3848176E-19
  -10.62000        8.3848367E-19
  -10.43000        8.3848667E-19
  -10.24000        8.3848921E-19
  -10.05000        8.3849039E-19
  -9.860000        8.3848827E-19
  -9.670000        8.3848419E-19
  -9.480000        8.3848031E-19
  -9.290000        8.3847902E-19
  -9.100000        8.3847990E-19
  -8.910000        8.3848367E-19
  -8.720000        8.3848781E-19
  -8.530000        8.3849096E-19
  -8.340000        8.3849148E-19
  -8.150000        8.3848952E-19
  -7.960000        8.3848610E-19
  -7.770000        8.3848300E-19
  -7.580000        8.3848176E-19
  -7.390000        8.3848285E-19
  -7.200000        8.3848517E-19
  -7.010000        8.3848641E-19
  -6.820000        8.3848678E-19
  -6.630000        8.3848507E-19
  -6.440000        8.3848274E-19
  -6.250000        8.3848062E-19
  -6.060000        8.3848000E-19
  -5.870000        8.3848104E-19
  -5.680000        8.3848362E-19
  -5.490000        8.3848652E-19
  -5.300000        8.3848838E-19
  -5.110000        8.3848827E-19
  -4.920000        8.3848631E-19
  -4.730000        8.3848326E-19
  -4.540000        8.3848130E-19
  -4.350000        8.3848068E-19
  -4.160000        8.3848166E-19
  -3.970000        8.3848357E-19
  -3.780000        8.3848512E-19
  -3.590000        8.3848574E-19
  -3.400000        8.3848450E-19
  -3.210000        8.3848223E-19
  -3.020000        8.3847980E-19
  -2.830000        8.3847881E-19
  -2.640000        8.3848042E-19
  -2.450000        8.3848367E-19
  -2.260000        8.3848641E-19
  -2.070000        8.3848905E-19
  -1.880000        8.3848926E-19
  -1.690000        8.3848827E-19
  -1.500000        8.3848678E-19
  -1.310000        8.3848657E-19
  -1.120000        8.3848709E-19
 -0.9300000        8.3848817E-19
 -0.7400000        8.3848884E-19
 -0.5500000        8.3848776E-19
 -0.3600000        8.3848455E-19
 -0.1700000        8.3847985E-19
  2.0000000E-02    8.3847473E-19
  0.2100000        8.3847147E-19
  0.4000000        8.3847039E-19
  0.5900000        8.3847256E-19
  0.7800000        8.3847675E-19
  0.9700000        8.3848073E-19
   1.160000        8.3848342E-19
   1.350000        8.3848352E-19
   1.540000        8.3848269E-19
   1.730000        8.3848166E-19
   1.920000        8.3848331E-19
   2.110000        8.3848698E-19
   2.300000        8.3849189E-19
   2.490000        8.3849562E-19
   2.680000        8.3849629E-19
   2.870000        8.3849308E-19
   3.060000        8.3848750E-19
   3.250000        8.3848243E-19
   3.440000        8.3847892E-19
   3.630000        8.3847850E-19
   3.820000        8.3848186E-19
   4.010000        8.3848579E-19
   4.200000        8.3848900E-19
   4.390000        8.3848941E-19
   4.580000        8.3848724E-19
   4.770000        8.3848352E-19
   4.960000        8.3848021E-19
   5.150000        8.3847923E-19
   5.340000        8.3848078E-19
   5.530000        8.3848388E-19
   5.720000        8.3848714E-19
   5.910000        8.3848874E-19
   6.100000        8.3848869E-19
   6.290000        8.3848698E-19
   6.480000        8.3848517E-19
   6.670000        8.3848481E-19
   6.860000        8.3848631E-19
   7.050000        8.3848941E-19
   7.240000        8.3849112E-19
   7.430000        8.3849122E-19
   7.620000        8.3848838E-19
   7.810000        8.3848311E-19
   8.000000        8.3847783E-19
   8.190000        8.3847540E-19
   8.380000        8.3847644E-19
   8.570000        8.3848135E-19
   8.760000        8.3848765E-19
   8.950000        8.3849288E-19
   9.140000        8.3849494E-19
   9.330000        8.3849422E-19
   9.520000        8.3849169E-19
   9.710000        8.3848833E-19
   9.900000        8.3848585E-19
   10.09000        8.3848502E-19
   10.28000        8.3848548E-19
   10.47000        8.3848481E-19
   10.66000        8.3848269E-19
   10.85000        8.3847938E-19
   11.04000        8.3847592E-19
   11.23000        8.3847385E-19
   11.42000        8.3847442E-19
   11.61000        8.3847907E-19
   11.80000        8.3848559E-19
   11.99000        8.3849143E-19
   12.18000        8.3849412E-19
   12.37000        8.3849334E-19
   12.56000        8.3849003E-19
   12.75000        8.3848585E-19
   12.94000        8.3848161E-19
   13.13000        8.3847954E-19
   13.32000        8.3847964E-19
   13.51000        8.3848114E-19
   13.70000        8.3848254E-19
   13.89000        8.3848186E-19
   14.08000        8.3847928E-19
   14.27000        8.3847525E-19
   14.46000        8.3847204E-19
   14.65000        8.3847018E-19
   14.84000        8.3847194E-19
   15.03000        8.3847669E-19
   15.22000        8.3848238E-19
   15.41000        8.3848724E-19
   15.60000        8.3848843E-19
   15.79000        8.3848647E-19
   15.98000        8.3848321E-19
   16.17000        8.3848093E-19
   16.36000        8.3848005E-19
   16.55000        8.3848192E-19
   16.74000        8.3848533E-19
   16.93000        8.3848859E-19
   17.12000        8.3848993E-19
   17.31000        8.3848833E-19
   17.50000        8.3848548E-19
   17.69000        8.3848161E-19
   17.88000        8.3847773E-19
   18.07000        8.3847520E-19
   18.26000        8.3847644E-19
   18.45000        8.3847943E-19
   18.64000        8.3848331E-19
   18.83000        8.3848714E-19
   19.02000        8.3848957E-19
   19.21000        8.3849138E-19
   19.40000        8.3849226E-19
   19.59000        8.3849226E-19
   19.78000        8.3849169E-19
   19.97000        8.3849045E-19
   20.16000        8.3848750E-19
   20.35000        8.3848285E-19
   20.54000        8.3847757E-19
   20.73000        8.3847354E-19
   20.92000        8.3847194E-19
   21.11000        8.3847323E-19
   21.30000        8.3847742E-19
   21.49000        8.3848285E-19
   21.68000        8.3848796E-19
   21.87000        8.3849014E-19
   22.06000        8.3848972E-19
   22.25000        8.3848740E-19
   22.44000        8.3848497E-19
   22.63000        8.3848419E-19
   22.82000        8.3848522E-19
   23.01000        8.3848709E-19
   23.20000        8.3848848E-19
   23.39000        8.3848864E-19
   23.58000        8.3848755E-19
   23.77000        8.3848522E-19
   23.96000        8.3848300E-19
   24.15000        8.3848145E-19
   24.34000        8.3848150E-19
   24.53000        8.3848347E-19
   24.72000        8.3848569E-19
   24.91000        8.3848796E-19
   25.10000        8.3848900E-19
   25.29000        8.3848874E-19
   25.48000        8.3848719E-19
   25.67000        8.3848486E-19
   25.86000        8.3848254E-19
   26.05000        8.3848037E-19
   26.24000        8.3847974E-19
   26.43000        8.3848026E-19
   26.62000        8.3848171E-19
   26.81000        8.3848352E-19
   27.00000        8.3848497E-19
   27.19000        8.3848641E-19
   27.38000        8.3848657E-19
   27.57000        8.3848662E-19
   27.76000        8.3848667E-19
   27.95000        8.3848626E-19
   28.14000        8.3848662E-19
   28.33000        8.3848755E-19
   28.52000        8.3848962E-19
   28.71000        8.3849158E-19
   28.90000        8.3849220E-19
   29.09000        8.3849184E-19
   29.28000        8.3849034E-19
   29.47000        8.3848734E-19
   29.66000        8.3848367E-19
   29.85000        8.3848000E-19
   30.04000        8.3847685E-19
   30.23000        8.3847514E-19
   30.42000        8.3847488E-19
   30.61000        8.3847561E-19
   30.80000        8.3847690E-19
   30.99000        8.3847814E-19
   31.18000        8.3847881E-19
   31.37000        8.3847943E-19
   31.56000        8.3848042E-19
   31.75000        8.3848150E-19
   31.94000        8.3848445E-19
   32.13000        8.3848678E-19
   32.32000        8.3848869E-19
   32.51000        8.3848884E-19
   32.70000        8.3848729E-19
   32.89000        8.3848512E-19
   33.08000        8.3848197E-19
   33.27000        8.3847907E-19
   33.46000        8.3847752E-19
   33.65000        8.3847742E-19
   33.84000        8.3847731E-19
   34.03000        8.3847902E-19
   34.22000        8.3848130E-19
   34.41000        8.3848378E-19
   34.60000        8.3848610E-19
   34.79000        8.3848838E-19
   34.98000        8.3848946E-19
   35.17000        8.3848931E-19
   35.36000        8.3848771E-19
   35.55000        8.3848585E-19
   35.74000        8.3848316E-19
   35.93000        8.3848021E-19
   36.12000        8.3847757E-19
   36.31000        8.3847545E-19
   36.50000        8.3847468E-19
   36.69000        8.3847452E-19
   36.88000        8.3847556E-19
   37.07000        8.3847638E-19
   37.26000        8.3847752E-19
   37.45000        8.3847850E-19
   37.64000        8.3847990E-19
   37.83000        8.3848181E-19
   38.02000        8.3848466E-19
   38.21000        8.3848796E-19
   38.40000        8.3849019E-19
   38.59000        8.3849143E-19
   38.78000        8.3849086E-19
   38.97000        8.3848822E-19
   39.16000        8.3848517E-19
   39.35000        8.3848259E-19
   39.54000        8.3848031E-19
   39.73000        8.3847974E-19
   39.92000        8.3848026E-19
   40.11000        8.3848114E-19
   40.30000        8.3848192E-19
   40.49000        8.3848259E-19
   40.68000        8.3848336E-19
   40.87000        8.3848481E-19
   41.06000        8.3848631E-19
   41.25000        8.3848833E-19
   41.44000        8.3848931E-19
   41.63000        8.3849091E-19
   41.82000        8.3849143E-19
   42.01000        8.3849210E-19
   42.20000        8.3849329E-19
   42.39000        8.3849484E-19
   42.58000        8.3849567E-19
   42.77000        8.3849536E-19
   42.96000        8.3849479E-19
   43.15000        8.3849272E-19
   43.34000        8.3848988E-19
   43.53000        8.3848616E-19
   43.72000        8.3848192E-19
   43.91000        8.3847804E-19
   44.10000        8.3847426E-19
   44.29000        8.3847209E-19
   44.48000        8.3847147E-19
   44.67000        8.3847251E-19
   44.86000        8.3847494E-19
   45.05000        8.3847757E-19
   45.24000        8.3847995E-19
   45.43000        8.3848197E-19
   45.62000        8.3848342E-19
   45.81000        8.3848445E-19
   46.00000        8.3848569E-19
   46.19000        8.3848760E-19
   46.38000        8.3848952E-19
   46.57000        8.3849019E-19
   46.76000        8.3848977E-19
   46.95000        8.3848812E-19
   47.14000        8.3848476E-19
   47.33000        8.3848135E-19
   47.52000        8.3847881E-19
   47.71000        8.3847762E-19
   47.90000        8.3847830E-19
   48.09000        8.3848031E-19
   48.28000        8.3848295E-19
   48.47000        8.3848559E-19
   48.66000        8.3848724E-19
   48.85000        8.3848786E-19
   49.04000        8.3848657E-19
   49.23000        8.3848460E-19
   49.42000        8.3848217E-19
   49.61000        8.3848062E-19
   49.80000        8.3847985E-19
   49.99000        8.3848124E-19
   50.18000        8.3848321E-19
   50.37000        8.3848517E-19
   50.56000        8.3848683E-19
   50.75000        8.3848879E-19
   50.94000        8.3849034E-19
   51.13000        8.3849117E-19
   51.32000        8.3849200E-19
   51.51000        8.3849169E-19
   51.70000        8.3849076E-19
   51.89000        8.3848869E-19
   52.08000        8.3848657E-19
   52.27000        8.3848517E-19
   52.46000        8.3848491E-19
   52.65000        8.3848569E-19
   52.84000        8.3848647E-19
   53.03000        8.3848667E-19
   53.22000        8.3848662E-19
   53.41000        8.3848698E-19
   53.60000        8.3848833E-19
   53.79000        8.3849065E-19
   53.98000        8.3849355E-19
   54.17000        8.3849665E-19
   54.36000        8.3849944E-19
   54.55000        8.3850032E-19
   54.74000        8.3849960E-19
   54.93000        8.3849701E-19
   55.12000        8.3849319E-19
   55.31000        8.3848972E-19
   55.50000        8.3848734E-19
   55.69000        8.3848553E-19
   55.88000        8.3848455E-19
   56.07000        8.3848419E-19
   56.26000        8.3848274E-19
   56.45000        8.3848026E-19
   56.64000        8.3847638E-19
   56.83000        8.3847168E-19
   57.02000        8.3846770E-19
   57.21000        8.3846413E-19
   57.40000        8.3846315E-19
   57.59000        8.3846506E-19
   57.78000        8.3846982E-19
   57.97000        8.3847545E-19
   58.16000        8.3848037E-19
   58.35000        8.3848388E-19
   58.54000        8.3848512E-19
   58.73000        8.3848388E-19
   58.92000        8.3848099E-19
   59.11000        8.3847809E-19
   59.30000        8.3847597E-19
   59.49000        8.3847478E-19
   59.68000        8.3847514E-19
   59.87000        8.3847664E-19
   60.06000        8.3847856E-19
   60.25000        8.3848062E-19
   60.44000        8.3848352E-19
   60.63000        8.3848719E-19
   60.82000        8.3849179E-19
   61.01000        8.3849624E-19
   61.20000        8.3849903E-19
   61.39000        8.3849986E-19
   61.58000        8.3849779E-19
   61.77000        8.3849329E-19
   61.96000        8.3848678E-19
   62.15000        8.3848021E-19
   62.34000        8.3847364E-19
   62.53000        8.3846832E-19
   62.72000        8.3846455E-19
   62.91000        8.3846139E-19
   63.10000        8.3845969E-19
   63.29000        8.3845974E-19
   63.48000        8.3846134E-19
   63.67000        8.3846537E-19
   63.86000        8.3847028E-19
   64.05000        8.3847582E-19
   64.24000        8.3847985E-19
   64.43000        8.3848161E-19
   64.62000        8.3848161E-19
   64.81000        8.3848057E-19
   65.00000        8.3847985E-19
   65.19000        8.3848114E-19
   65.38000        8.3848528E-19
   65.57000        8.3849195E-19
   65.76000        8.3849887E-19
   65.95000        8.3850503E-19
   66.14000        8.3850833E-19
   66.33000        8.3850926E-19
   66.52000        8.3850813E-19
   66.71000        8.3850518E-19
   66.90000        8.3850151E-19
   67.09000        8.3849898E-19
   67.28000        8.3849660E-19
   67.47000        8.3849572E-19
   67.66000        8.3849427E-19
   67.85000        8.3849272E-19
   68.04000        8.3849008E-19
   68.23000        8.3848631E-19
   68.42000        8.3848217E-19
   68.61000        8.3847840E-19
   68.80000        8.3847545E-19
   68.99000        8.3847287E-19
   69.18000        8.3847008E-19
   69.37000        8.3846718E-19
   69.56000        8.3846511E-19
   69.75000        8.3846310E-19
   69.94000        8.3846222E-19
   70.13000        8.3846279E-19
   70.32000        8.3846573E-19
   70.51000        8.3847003E-19
   70.70000        8.3847504E-19
   70.89000        8.3848062E-19
   71.08000        8.3848595E-19
   71.27000        8.3849096E-19
   71.46000        8.3849479E-19
   71.65000        8.3849701E-19
   71.84000        8.3849784E-19
   72.03000        8.3849706E-19
   72.22000        8.3849412E-19
   72.41000        8.3849169E-19
   72.60000        8.3848983E-19
   72.79000        8.3849039E-19
   72.98000        8.3849262E-19
   73.17000        8.3849541E-19
   73.36000        8.3849861E-19
   73.55000        8.3850042E-19
   73.74000        8.3850037E-19
   73.93000        8.3849903E-19
   74.12000        8.3849660E-19
   74.31000        8.3849282E-19
   74.50000        8.3848838E-19
   74.69000        8.3848435E-19
   74.88000        8.3848052E-19
   75.07000        8.3847783E-19
   75.26000        8.3847695E-19
   75.45000        8.3847664E-19
   75.64000        8.3847680E-19
   75.83000        8.3847690E-19
   76.02000        8.3847680E-19
   76.21000        8.3847716E-19
   76.40000        8.3847757E-19
   76.59000        8.3847825E-19
   76.78000        8.3847964E-19
   76.97000        8.3848078E-19
   77.16000        8.3848207E-19
   77.35000        8.3848321E-19
   77.54000        8.3848393E-19
   77.73000        8.3848528E-19
   77.92000        8.3848838E-19
   78.11000        8.3849251E-19
   78.30000        8.3849768E-19
   78.49000        8.3850327E-19
   78.68000        8.3850771E-19
   78.87000        8.3851133E-19
   79.06000        8.3851402E-19
   79.25000        8.3851542E-19
   79.44000        8.3851505E-19
   79.63000        8.3851190E-19
   79.82000        8.3850616E-19
   80.01000        8.3849794E-19
   80.20000        8.3848843E-19
   80.39000        8.3847949E-19
   80.58000        8.3847354E-19
   80.77000        8.3847018E-19
   80.96000        8.3847028E-19
   81.15000        8.3847220E-19
   81.34000        8.3847364E-19
   81.53000        8.3847432E-19
   81.72000        8.3847287E-19
   81.91000        8.3847101E-19
   82.10000        8.3846909E-19
   82.29000        8.3846858E-19
   82.48000        8.3846904E-19
   82.67000        8.3846920E-19
   82.86000        8.3846868E-19
   83.05000        8.3846672E-19
   83.24000        8.3846336E-19
   83.43000        8.3846005E-19
   83.62000        8.3845772E-19
   83.81000        8.3845762E-19
   84.00000        8.3845839E-19
   84.19000        8.3845994E-19
   84.38000        8.3846149E-19
   84.57000        8.3846149E-19
   84.76000        8.3846129E-19
   84.95000        8.3846062E-19
   85.14000        8.3846046E-19
   85.33000        8.3846155E-19
   85.52000        8.3846372E-19
   85.71000        8.3846749E-19
   85.90000        8.3847199E-19
   86.09000        8.3847623E-19
   86.28000        8.3848093E-19
   86.47000        8.3848481E-19
   86.66000        8.3848895E-19
   86.85000        8.3849210E-19
   87.04000        8.3849443E-19
   87.23000        8.3849494E-19
   87.42000        8.3849375E-19
   87.61000        8.3849262E-19
   87.80000        8.3849246E-19
   87.99000        8.3849422E-19
   88.18000        8.3849794E-19
   88.37000        8.3850368E-19
   88.56000        8.3851009E-19
   88.75000        8.3851557E-19
   88.94000        8.3851878E-19
   89.13000        8.3851857E-19
   89.32000        8.3851428E-19
   89.51000        8.3850813E-19
   89.70000        8.3849991E-19
   89.89000        8.3849112E-19
   90.08000        8.3848259E-19
   90.27000        8.3847576E-19
   90.46000        8.3847049E-19
   90.65000        8.3846630E-19
   90.84000        8.3846305E-19
   91.03000        8.3846144E-19
   91.22000        8.3846129E-19
   91.41000        8.3846279E-19
   91.60000        8.3846486E-19
   91.79000        8.3846847E-19
   91.98000        8.3847235E-19
   92.17000        8.3847633E-19
   92.36000        8.3847876E-19
   92.55000        8.3848047E-19
   92.74000        8.3848093E-19
   92.93000        8.3848114E-19
   93.12000        8.3848192E-19
   93.31000        8.3848429E-19
   93.50000        8.3848791E-19
   93.69000        8.3849303E-19
   93.88000        8.3849836E-19
   94.07000        8.3850347E-19
   94.26000        8.3850689E-19
   94.45000        8.3850911E-19
   94.64000        8.3850870E-19
   94.83000        8.3850565E-19
   95.02000        8.3850099E-19
   95.21000        8.3849608E-19
   95.40000        8.3849174E-19
   95.59000        8.3848771E-19
   95.78000        8.3848491E-19
   95.97000        8.3848243E-19
   96.16000        8.3847995E-19
   96.35000        8.3847669E-19
   96.54000        8.3847240E-19
   96.73000        8.3846713E-19
   96.92000        8.3846087E-19
   97.11000        8.3845477E-19
   97.30000        8.3844929E-19
   97.49000        8.3844536E-19
   97.68000        8.3844521E-19
   97.87000        8.3844847E-19
   98.06000        8.3845519E-19
   98.25000        8.3846279E-19
   98.44000        8.3847096E-19
   98.63000        8.3847788E-19
   98.82000        8.3848290E-19
   99.01000        8.3848698E-19
   99.20000        8.3849112E-19
   99.39000        8.3849732E-19
   99.58000        8.3850497E-19
   99.77000        8.3851335E-19
   99.96000        8.3852043E-19
   100.1500        8.3852457E-19
   100.3400        8.3852596E-19
   100.5300        8.3852503E-19
   100.7200        8.3852271E-19
   100.9100        8.3852162E-19
   101.1000        8.3852002E-19
   101.2900        8.3851847E-19
   101.4800        8.3851387E-19
   101.6700        8.3850673E-19
   101.8600        8.3849696E-19
   102.0500        8.3848688E-19
   102.2400        8.3847861E-19
   102.4300        8.3847261E-19
   102.6200        8.3846956E-19
   102.8100        8.3846842E-19
   103.0000        8.3846760E-19
   103.1900        8.3846491E-19
   103.3800        8.3846077E-19
   103.5700        8.3845700E-19
   103.7600        8.3845498E-19
   103.9500        8.3845684E-19
   104.1400        8.3846367E-19
   104.3300        8.3847220E-19
   104.5200        8.3847969E-19
   104.7100        8.3848342E-19
   104.9000        8.3848311E-19
   105.0900        8.3847959E-19
   105.2800        8.3847618E-19
   105.4700        8.3847716E-19
   105.6600        8.3848373E-19
   105.8500        8.3849484E-19
   106.0400        8.3850823E-19
   106.2300        8.3851940E-19
   106.4200        8.3852446E-19
   106.6100        8.3852384E-19
   106.8000        8.3851945E-19
   106.9900        8.3851614E-19
   107.1800        8.3851707E-19
   107.3700        8.3852296E-19
   107.5600        8.3853113E-19
   107.7500        8.3853599E-19
   107.9400        8.3853320E-19
   108.1300        8.3852116E-19
   108.3200        8.3850187E-19
   108.5100        8.3848124E-19
   108.7000        8.3846330E-19
   108.8900        8.3845126E-19
   109.0800        8.3844376E-19
   109.2700        8.3843580E-19
   109.4600        8.3842277E-19
   109.6500        8.3840163E-19
   109.8400        8.3837423E-19
   110.0300        8.3834626E-19
   110.2200        8.3832506E-19
   110.4100        8.3831545E-19
   110.6000        8.3831695E-19
   110.7900        8.3832568E-19
   110.9800        8.3833468E-19
   111.1700        8.3833990E-19
   111.3600        8.3834083E-19
   111.5500        8.3834331E-19
   111.7400        8.3835546E-19
   111.9300        8.3838369E-19
   112.1200        8.3842923E-19
   112.3100        8.3848497E-19
   112.5000        8.3854147E-19
   112.6900        8.3858991E-19
   112.8800        8.3862688E-19
   113.0700        8.3865774E-19
   113.2600        8.3869155E-19
   113.4500        8.3873741E-19
   113.6400        8.3879676E-19
   113.8300        8.3886371E-19
   114.0200        8.3892415E-19
   114.2100        8.3896421E-19
   114.4000        8.3897673E-19
   114.5900        8.3896401E-19
   114.7800        8.3893485E-19
   114.9700        8.3890212E-19
   115.1600        8.3887281E-19
   115.3500        8.3884479E-19
   115.5400        8.3880695E-19
   115.7300        8.3874496E-19
   115.9200        8.3864916E-19
   116.1100        8.3852136E-19
   116.3000        8.3837449E-19
   116.4900        8.3822549E-19
   116.6800        8.3808673E-19
   116.8700        8.3796265E-19
   117.0600        8.3784654E-19
   117.2500        8.3772629E-19
   117.4400        8.3759425E-19
   117.6300        8.3745275E-19
   117.8200        8.3731771E-19
   118.0100        8.3721245E-19
   118.2000        8.3715775E-19
   118.3900        8.3716323E-19
   118.5800        8.3722274E-19
   118.7700        8.3732045E-19
   118.9600        8.3743905E-19
   119.1500        8.3757062E-19
   119.3400        8.3772287E-19
   119.5300        8.3791395E-19
   119.7200        8.3816304E-19
   119.9100        8.3847726E-19
   120.1000        8.3884572E-19
   120.2900        8.3924158E-19
   120.4800        8.3963149E-19
   120.6700        8.3998987E-19
   120.8600        8.4030735E-19
   121.0500        8.4059350E-19
   121.2400        8.4086321E-19
   121.4300        8.4112445E-19
   121.6200        8.4136660E-19
   121.8100        8.4156161E-19
   122.0000        8.4167194E-19
   122.1900        8.4166651E-19
   122.3800        8.4153390E-19
   122.5700        8.4128704E-19
   122.7600        8.4095322E-19
   122.9500        8.4055664E-19
   123.1400        8.4010707E-19
   123.3300        8.3959303E-19
   123.5200        8.3899466E-19
   123.7100        8.3829575E-19
   123.9000        8.3750538E-19
   124.0900        8.3665876E-19
   124.2800        8.3581271E-19
   124.4700        8.3502497E-19
   124.6600        8.3433164E-19
   124.8500        8.3373964E-19
   125.0400        8.3322875E-19
   125.2300        8.3277390E-19
   125.4200        8.3236492E-19
   125.6100        8.3202391E-19
   125.8000        8.3180031E-19
   125.9900        8.3175513E-19
   126.1800        8.3193406E-19
   126.3700        8.3234972E-19
   126.5600        8.3297920E-19
   126.7500        8.3377919E-19
   126.9400        8.3470894E-19
   127.1300        8.3574922E-19
   127.3200        8.3690696E-19
   127.5100        8.3820000E-19
   127.7000        8.3963526E-19
   127.8900        8.4118628E-19
   128.0800        8.4278951E-19
   128.2700        8.4436100E-19
   128.4600        8.4582459E-19
   128.6500        8.4713805E-19
   128.8400        8.4830133E-19
   129.0300        8.4934430E-19
   129.2200        8.5029364E-19
   129.4100        8.5114295E-19
   129.6000        8.5183933E-19
   129.7900        8.5229366E-19
   129.9800        8.5241164E-19
   130.1700        8.5213221E-19
   130.3600        8.5144859E-19
   130.5500        8.5040645E-19
   130.7400        8.4907153E-19
   130.9300        8.4749524E-19
   131.1200        8.4568594E-19
   131.3100        8.4360868E-19
   131.5000        8.4121208E-19
   131.6900        8.3846754E-19
   131.8800        8.3540129E-19
   132.0700        8.3210001E-19
   132.2600        8.2868867E-19
   132.4500        8.2529350E-19
   132.6400        8.2200727E-19
   132.8300        8.1887732E-19
   133.0200        8.1592729E-19
   133.2100        8.1318952E-19
   133.4000        8.1073766E-19
   133.5900        8.0869183E-19
   133.7800        8.0719779E-19
   133.9700        8.0638426E-19
   134.1600        8.0632511E-19
   134.3500        8.0702398E-19
   134.5400        8.0843763E-19
   134.7300        8.1052554E-19
   134.9200        8.1329282E-19
   135.1100        8.1680849E-19
   135.3000        8.2118288E-19
   135.4900        8.2650910E-19
   135.6800        8.3280110E-19
   135.8700        8.3995357E-19
   136.0600        8.4774944E-19
   136.2500        8.5590834E-19
   136.4400        8.6415471E-19
   136.6300        8.7227178E-19
   136.8200        8.8011262E-19
   137.0100        8.8757121E-19
   137.2000        8.9452873E-19
   137.3900        9.0080817E-19
   137.5800        9.0616675E-19
   137.7700        9.1032695E-19
   137.9600        9.1303576E-19
   138.1500        9.1411171E-19
   138.3400        9.1346020E-19
   138.5300        9.1104246E-19
   138.7200        9.0682456E-19
   138.9100        9.0073672E-19
   139.1000        8.9267150E-19
   139.2900        8.8253171E-19
   139.4800        8.7031074E-19
   139.6700        8.5615928E-19
   139.8600        8.4040428E-19
   140.0500        8.2350607E-19
   140.2400        8.0596839E-19
   140.4300        7.8824093E-19
   140.6200        7.7066980E-19
   140.8100        7.5351170E-19
   141.0000        7.3700971E-19
   141.1900        7.2148316E-19
   141.3800        7.0738082E-19
   141.5700        6.9527276E-19
   141.7600        6.8577362E-19
   141.9500        6.7943080E-19
   142.1400        6.7663498E-19
   142.3300        6.7759239E-19
   142.5200        6.8236517E-19