  -30.00000        1.0389811E-17
  -29.81000        1.0389811E-17
  -29.62000        1.0389811E-17
  -29.43000        1.0389811E-17
  -29.24000        1.0389812E-17
  -29.05000        1.0389813E-17
  -28.86000        1.0389814E-17
  -28.67000        1.0389814E-17
  -28.48000        1.0389814E-17
  -28.29000        1.0389813E-17
  -28.10000        1.0389813E-17
  -27.91000        1.0389811E-17
  -27.72000        1.0389810E-17
  -27.53000        1.0389810E-17
  -27.34000        1.0389810E-17
  -27.15000        1.0389810E-17
  -26.96000        1.0389810E-17
  -26.77000        1.0389812E-17
  -26.58000        1.0389814E-17
  -26.39000        1.0389814E-17
  -26.20000        1.0389815E-17
  -26.01000        1.0389814E-17
  -25.82000        1.0389812E-17
  -25.63000        1.0389810E-17
  -25.44000        1.0389808E-17
  -25.25000        1.0389807E-17
  -25.06000        1.0389807E-17
  -24.87000        1.0389808E-17
  -24.68000        1.0389810E-17
  -24.49000        1.0389812E-17
  -24.30000        1.0389814E-17
  -24.11000        1.0389816E-17
  -23.92000        1.0389816E-17
  -23.73000        1.0389814E-17
  -23.54000        1.0389813E-17
  -23.35000        1.0389810E-17
  -23.16000        1.0389808E-17
  -22.97000        1.0389807E-17
  -22.78000        1.0389805E-17
  -22.59000        1.0389806E-17
  -22.40000        1.0389809E-17
  -22.21000        1.0389810E-17
  -22.02000        1.0389813E-17
  -21.83000        1.0389814E-17
  -21.64000        1.0389814E-17
  -21.45000        1.0389814E-17
  -21.26000        1.0389813E-17
  -21.07000        1.0389810E-17
  -20.88000        1.0389809E-17
  -20.69000        1.0389808E-17
  -20.50000        1.0389809E-17
  -20.31000        1.0389811E-17
  -20.12000        1.0389814E-17
  -19.93000        1.0389818E-17
  -19.74000        1.0389820E-17
  -19.55000        1.0389821E-17
  -19.36000        1.0389820E-17
  -19.17000        1.0389817E-17
  -18.98000        1.0389814E-17
  -18.79000        1.0389810E-17
  -18.60000        1.0389809E-17
  -18.41000        1.0389809E-17
  -18.22000        1.0389810E-17
  -18.03000        1.0389811E-17
  -17.84000        1.0389812E-17
  -17.65000        1.0389813E-17
  -17.46000        1.0389812E-17
  -17.27000        1.0389812E-17
  -17.08000        1.0389810E-17
  -16.89000        1.0389810E-17
  -16.70000        1.0389809E-17
  -16.51000        1.0389808E-17
  -16.32000        1.0389808E-17
  -16.13000        1.0389809E-17
  -15.94000        1.0389811E-17
  -15.75000        1.0389813E-17
  -15.56000        1.0389815E-17
  -15.37000        1.0389818E-17
  -15.18000        1.0389819E-17
  -14.99000        1.0389819E-17
  -14.80000        1.0389817E-17
  -14.61000        1.0389814E-17
  -14.42000        1.0389813E-17
  -14.23000        1.0389811E-17
  -14.04000        1.0389810E-17
  -13.85000        1.0389811E-17
  -13.66000        1.0389813E-17
  -13.47000        1.0389814E-17
  -13.28000        1.0389815E-17
  -13.09000        1.0389814E-17
  -12.90000        1.0389813E-17
  -12.71000        1.0389810E-17
  -12.52000        1.0389809E-17
  -12.33000        1.0389807E-17
  -12.14000        1.0389806E-17
  -11.95000        1.0389806E-17
  -11.76000        1.0389808E-17
  -11.57000        1.0389809E-17
  -11.38000        1.0389810E-17
  -11.19000        1.0389810E-17
  -11.00000        1.0389809E-17
  -10.81000        1.0389808E-17
  -10.62000        1.0389806E-17
  -10.43000        1.0389806E-17
  -10.24000        1.0389805E-17
  -10.05000        1.0389806E-17
  -9.860000        1.0389808E-17
  -9.670000        1.0389810E-17
  -9.480000        1.0389812E-17
  -9.290000        1.0389814E-17
  -9.100000        1.0389817E-17
  -8.910000        1.0389818E-17
  -8.720000        1.0389816E-17
  -8.530000        1.0389814E-17
  -8.340000        1.0389810E-17
  -8.150000        1.0389807E-17
  -7.960000        1.0389805E-17
  -7.770000        1.0389806E-17
  -7.580000        1.0389809E-17
  -7.390000        1.0389813E-17
  -7.200000        1.0389816E-17
  -7.010000        1.0389817E-17
  -6.820000        1.0389815E-17
  -6.630000        1.0389812E-17
  -6.440000        1.0389807E-17
  -6.250000        1.0389802E-17
  -6.060000        1.0389800E-17
  -5.870000        1.0389800E-17
  -5.680000        1.0389804E-17
  -5.490000        1.0389808E-17
  -5.300000        1.0389812E-17
  -5.110000        1.0389815E-17
  -4.920000        1.0389817E-17
  -4.730000        1.0389818E-17
  -4.540000        1.0389816E-17
  -4.350000        1.0389814E-17
  -4.160000        1.0389812E-17
  -3.970000        1.0389810E-17
  -3.780000        1.0389810E-17
  -3.590000        1.0389811E-17
  -3.400000        1.0389813E-17
  -3.210000        1.0389814E-17
  -3.020000        1.0389815E-17
  -2.830000        1.0389816E-17
  -2.640000        1.0389816E-17
  -2.450000        1.0389816E-17
  -2.260000        1.0389815E-17
  -2.070000        1.0389814E-17
  -1.880000        1.0389814E-17
  -1.690000        1.0389816E-17
  -1.500000        1.0389818E-17
  -1.310000        1.0389820E-17
  -1.120000        1.0389822E-17
 -0.9300000        1.0389823E-17
 -0.7400000        1.0389821E-17
 -0.5500000        1.0389819E-17
 -0.3600000        1.0389815E-17
 -0.1700000        1.0389811E-17
  2.0000000E-02    1.0389809E-17
  0.2100000        1.0389807E-17
  0.4000000        1.0389808E-17
  0.5900000        1.0389809E-17
  0.7800000        1.0389810E-17
  0.9700000        1.0389808E-17
   1.160000        1.0389805E-17
   1.350000        1.0389802E-17
   1.540000        1.0389800E-17
   1.730000        1.0389798E-17
   1.920000        1.0389800E-17
   2.110000        1.0389804E-17
   2.300000        1.0389810E-17
   2.490000        1.0389814E-17
   2.680000        1.0389817E-17
   2.870000        1.0389818E-17
   3.060000        1.0389817E-17
   3.250000        1.0389815E-17
   3.440000        1.0389813E-17
   3.630000        1.0389814E-17
   3.820000        1.0389816E-17
   4.010000        1.0389819E-17
   4.200000        1.0389824E-17
   4.390000        1.0389826E-17
   4.580000        1.0389826E-17
   4.770000        1.0389823E-17
   4.960000        1.0389818E-17
   5.150000        1.0389810E-17
   5.340000        1.0389805E-17
   5.530000        1.0389800E-17
   5.720000        1.0389796E-17
   5.910000        1.0389795E-17
   6.100000        1.0389796E-17
   6.290000        1.0389799E-17
   6.480000        1.0389802E-17
   6.670000        1.0389805E-17
   6.860000        1.0389806E-17
   7.050000        1.0389807E-17
   7.240000        1.0389807E-17
   7.430000        1.0389807E-17
   7.620000        1.0389807E-17
   7.810000        1.0389809E-17
   8.000000        1.0389813E-17
   8.190000        1.0389819E-17
   8.380000        1.0389824E-17
   8.570000        1.0389827E-17
   8.760000        1.0389828E-17
   8.950000        1.0389824E-17
   9.140000        1.0389819E-17
   9.330000        1.0389814E-17
   9.520000        1.0389809E-17
   9.710000        1.0389808E-17
   9.900000        1.0389810E-17
   10.09000        1.0389814E-17
   10.28000        1.0389819E-17
   10.47000        1.0389822E-17
   10.66000        1.0389821E-17
   10.85000        1.0389816E-17
   11.04000        1.0389808E-17
   11.23000        1.0389800E-17
   11.42000        1.0389793E-17
   11.61000        1.0389789E-17
   11.80000        1.0389790E-17
   11.99000        1.0389794E-17
   12.18000        1.0389801E-17
   12.37000        1.0389809E-17
   12.56000        1.0389816E-17
   12.75000        1.0389821E-17
   12.94000        1.0389823E-17
   13.13000        1.0389822E-17
   13.32000        1.0389819E-17
   13.51000        1.0389816E-17
   13.70000        1.0389814E-17
   13.89000        1.0389813E-17
   14.08000        1.0389815E-17
   14.27000        1.0389819E-17
   14.46000        1.0389824E-17
   14.65000        1.0389829E-17
   14.84000        1.0389831E-17
   15.03000        1.0389829E-17
   15.22000        1.0389824E-17
   15.41000        1.0389819E-17
   15.60000        1.0389811E-17
   15.79000        1.0389806E-17
   15.98000        1.0389805E-17
   16.17000        1.0389807E-17
   16.36000        1.0389812E-17
   16.55000        1.0389817E-17
   16.74000        1.0389820E-17
   16.93000        1.0389819E-17
   17.12000        1.0389815E-17
   17.31000        1.0389809E-17
   17.50000        1.0389800E-17
   17.69000        1.0389795E-17
   17.88000        1.0389791E-17
   18.07000        1.0389793E-17
   18.26000        1.0389798E-17
   18.45000        1.0389805E-17
   18.64000        1.0389811E-17
   18.83000        1.0389815E-17
   19.02000        1.0389817E-17
   19.21000        1.0389815E-17
   19.40000        1.0389811E-17
   19.59000        1.0389807E-17
   19.78000        1.0389804E-17
   19.97000        1.0389803E-17
   20.16000        1.0389805E-17
   20.35000        1.0389810E-17
   20.54000        1.0389815E-17
   20.73000        1.0389821E-17
   20.92000        1.0389825E-17
   21.11000        1.0389827E-17
   21.30000        1.0389824E-17
   21.49000        1.0389819E-17
   21.68000        1.0389814E-17
   21.87000        1.0389808E-17
   22.06000        1.0389805E-17
   22.25000        1.0389804E-17
   22.44000        1.0389806E-17
   22.63000        1.0389811E-17
   22.82000        1.0389816E-17
   23.01000        1.0389819E-17
   23.20000        1.0389819E-17
   23.39000        1.0389816E-17
   23.58000        1.0389812E-17
   23.77000        1.0389806E-17
   23.96000        1.0389801E-17
   24.15000        1.0389799E-17
   24.34000        1.0389799E-17
   24.53000        1.0389800E-17
   24.72000        1.0389803E-17
   24.91000        1.0389806E-17
   25.10000        1.0389808E-17
   25.29000        1.0389809E-17
   25.48000        1.0389808E-17
   25.67000        1.0389806E-17
   25.86000        1.0389805E-17
   26.05000        1.0389805E-17
   26.24000        1.0389809E-17
   26.43000        1.0389812E-17
   26.62000        1.0389817E-17
   26.81000        1.0389822E-17
   27.00000        1.0389826E-17
   27.19000        1.0389826E-17
   27.38000        1.0389824E-17
   27.57000        1.0389819E-17
   27.76000        1.0389813E-17
   27.95000        1.0389807E-17
   28.14000        1.0389803E-17
   28.33000        1.0389801E-17
   28.52000        1.0389802E-17
   28.71000        1.0389805E-17
   28.90000        1.0389808E-17
   29.09000        1.0389810E-17
   29.28000        1.0389810E-17
   29.47000        1.0389809E-17
   29.66000        1.0389808E-17
   29.85000        1.0389808E-17
   30.04000        1.0389810E-17
   30.23000        1.0389814E-17
   30.42000        1.0389820E-17
   30.61000        1.0389827E-17
   30.80000        1.0389833E-17
   30.99000        1.0389834E-17
   31.18000        1.0389833E-17
   31.37000        1.0389828E-17
   31.56000        1.0389819E-17
   31.75000        1.0389810E-17
   31.94000        1.0389804E-17
   32.13000        1.0389800E-17
   32.32000        1.0389800E-17
   32.51000        1.0389802E-17
   32.70000        1.0389805E-17
   32.89000        1.0389809E-17
   33.08000        1.0389810E-17
   33.27000        1.0389809E-17
   33.46000        1.0389806E-17
   33.65000        1.0389804E-17
   33.84000        1.0389803E-17
   34.03000        1.0389805E-17
   34.22000        1.0389810E-17
   34.41000        1.0389818E-17
   34.60000        1.0389825E-17
   34.79000        1.0389830E-17
   34.98000        1.0389832E-17
   35.17000        1.0389830E-17
   35.36000        1.0389825E-17
   35.55000        1.0389818E-17
   35.74000        1.0389810E-17
   35.93000        1.0389805E-17
   36.12000        1.0389802E-17
   36.31000        1.0389802E-17
   36.50000        1.0389805E-17
   36.69000        1.0389810E-17
   36.88000        1.0389815E-17
   37.07000        1.0389817E-17
   37.26000        1.0389815E-17
   37.45000        1.0389811E-17
   37.64000        1.0389805E-17
   37.83000        1.0389799E-17
   38.02000        1.0389795E-17
   38.21000        1.0389795E-17
   38.40000        1.0389798E-17
   38.59000        1.0389805E-17
   38.78000        1.0389811E-17
   38.97000        1.0389817E-17
   39.16000        1.0389820E-17
   39.35000        1.0389820E-17
   39.54000        1.0389817E-17
   39.73000        1.0389812E-17
   39.92000        1.0389807E-17
   40.11000        1.0389803E-17
   40.30000        1.0389802E-17
   40.49000        1.0389803E-17
   40.68000        1.0389805E-17
   40.87000        1.0389806E-17
   41.06000        1.0389807E-17
   41.25000        1.0389805E-17
   41.44000        1.0389801E-17
   41.63000        1.0389797E-17
   41.82000        1.0389794E-17
   42.01000        1.0389792E-17
   42.20000        1.0389795E-17
   42.39000        1.0389803E-17
   42.58000        1.0389813E-17
   42.77000        1.0389824E-17
   42.96000        1.0389835E-17
   43.15000        1.0389844E-17
   43.34000        1.0389849E-17
   43.53000        1.0389849E-17
   43.72000        1.0389846E-17
   43.91000        1.0389841E-17
   44.10000        1.0389834E-17
   44.29000        1.0389827E-17
   44.48000        1.0389820E-17
   44.67000        1.0389814E-17
   44.86000        1.0389810E-17
   45.05000        1.0389803E-17
   45.24000        1.0389795E-17
   45.43000        1.0389784E-17
   45.62000        1.0389770E-17
   45.81000        1.0389753E-17
   46.00000        1.0389735E-17
   46.19000        1.0389716E-17
   46.38000        1.0389699E-17
   46.57000        1.0389684E-17
   46.76000        1.0389672E-17
   46.95000        1.0389665E-17
   47.14000        1.0389663E-17
   47.33000        1.0389667E-17
   47.52000        1.0389678E-17
   47.71000        1.0389699E-17
   47.90000        1.0389730E-17
   48.09000        1.0389775E-17
   48.28000        1.0389832E-17
   48.47000        1.0389903E-17
   48.66000        1.0389987E-17
   48.85000        1.0390079E-17
   49.04000        1.0390179E-17
   49.23000        1.0390282E-17
   49.42000        1.0390382E-17
   49.61000        1.0390473E-17
   49.80000        1.0390552E-17
   49.99000        1.0390608E-17
   50.18000        1.0390639E-17
   50.37000        1.0390638E-17
   50.56000        1.0390603E-17
   50.75000        1.0390527E-17
   50.94000        1.0390407E-17
   51.13000        1.0390241E-17
   51.32000        1.0390027E-17
   51.51000        1.0389763E-17
   51.70000        1.0389450E-17
   51.89000        1.0389092E-17
   52.08000        1.0388693E-17
   52.27000        1.0388263E-17
   52.46000        1.0387811E-17
   52.65000        1.0387350E-17
   52.84000        1.0386897E-17
   53.03000        1.0386467E-17
   53.22000        1.0386082E-17
   53.41000        1.0385769E-17
   53.60000        1.0385555E-17
   53.79000        1.0385472E-17
   53.98000        1.0385555E-17
   54.17000        1.0385843E-17
   54.36000        1.0386369E-17
   54.55000        1.0387166E-17
   54.74000        1.0388260E-17
   54.93000        1.0389671E-17
   55.12000        1.0391404E-17
   55.31000        1.0393453E-17
   55.50000        1.0395791E-17
   55.69000        1.0398369E-17
   55.88000        1.0401115E-17
   56.07000        1.0403932E-17
   56.26000        1.0406694E-17
   56.45000        1.0409252E-17
   56.64000        1.0411431E-17
   56.83000        1.0413043E-17
   57.02000        1.0413885E-17
   57.21000        1.0413751E-17
   57.40000        1.0412445E-17
   57.59000        1.0409793E-17
   57.78000        1.0405653E-17
   57.97000        1.0399931E-17
   58.16000        1.0392595E-17
   58.35000        1.0383687E-17
   58.54000        1.0373330E-17
   58.73000        1.0361744E-17
   58.92000        1.0349248E-17
   59.11000        1.0336261E-17
   59.30000        1.0323307E-17
   59.49000        1.0311001E-17
   59.68000        1.0300042E-17
   59.87000        1.0291190E-17
   60.06000        1.0285237E-17
   60.25000        1.0282978E-17
   60.44000        1.0285173E-17
   60.63000        1.0292498E-17
   60.82000        1.0305509E-17
   61.01000        1.0324590E-17
   61.20000        1.0349906E-17
   61.39000        1.0381364E-17
   61.58000        1.0418575E-17
   61.77000        1.0460821E-17
   61.96000        1.0507043E-17
   62.15000        1.0555824E-17
   62.34000        1.0605407E-17
   62.53000        1.0653717E-17
   62.72000        1.0698405E-17
   62.91000        1.0736916E-17
   63.10000        1.0766572E-17
   63.29000        1.0784674E-17
   63.48000        1.0788626E-17
   63.67000        1.0776067E-17
   63.86000        1.0745018E-17
   64.05000        1.0694029E-17
   64.24000        1.0622323E-17
   64.43000        1.0529939E-17
   64.62000        1.0417840E-17
   64.81000        1.0288014E-17
   65.00000        1.0143519E-17
   65.19000        9.9884938E-18
   65.38000        9.8281175E-18
   65.57000        9.6685105E-18
   65.76000        9.5165682E-18
   65.95000        9.3797467E-18
   66.14000        9.2657803E-18
   66.33000        9.1823608E-18
   66.52000        9.1367740E-18
   66.71000        9.1355217E-18
   66.90000        9.1839365E-18
   67.09000        9.2858195E-18
   67.28000        9.4431154E-18
   67.47000        9.6556528E-18
   67.66000        9.9209602E-18
   67.85000        1.0234175E-17
   68.04000        1.0588062E-17
   68.23000        1.0973141E-17
   68.42000        1.1377921E-17
   68.61000        1.1789244E-17
   68.80000        1.2192710E-17
   68.99000        1.2573179E-17
   69.18000        1.2915307E-17
   69.37000        1.3204111E-17
   69.56000        1.3425523E-17
   69.75000        1.3566907E-17
   69.94000        1.3617521E-17
   70.13000        1.3568911E-17
   70.32000        1.3415215E-17
   70.51000        1.3153379E-17
   70.70000        1.2783293E-17
   70.89000        1.2307841E-17
   71.08000        1.1732886E-17
   71.27000        1.1067198E-17
   71.46000        1.0322339E-17
   71.65000        9.5125100E-18
   71.84000        8.6543829E-18
   72.03000        7.7668951E-18
   72.22000        6.8710275E-18
   72.41000        5.9895466E-18
   72.60000        5.1467037E-18
   72.79000        4.3678888E-18
   72.98000        3.6792067E-18
   73.17000        3.1069909E-18
   73.36000        2.6772265E-18
   73.55000        2.4148891E-18
   73.74000        2.3432075E-18
   73.93000        2.4828579E-18
   74.12000        2.8511168E-18
   74.31000        3.4609959E-18
   74.50000        4.3204024E-18
   74.69000        5.4313556E-18
   74.88000        6.7892950E-18
   75.07000        8.3825259E-18
   75.26000        1.0191818E-17
   75.45000        1.2190194E-17
   75.64000        1.4342910E-17
   75.83000        1.6607656E-17
   76.02000        1.8934953E-17
   76.21000        2.1268782E-17
   76.40000        2.3547405E-17
   76.59000        2.5704401E-17
   76.78000        2.7669895E-17
   76.97000        2.9371982E-17
   77.16000        3.0738349E-17
   77.35000        3.1698077E-17
   77.54000        3.2183642E-17
   77.73000        3.2133075E-17
   77.92000        3.1492311E-17
   78.11000        3.0217626E-17
   78.30000        2.8278198E-17
   78.49000        2.5658626E-17
   78.68000        2.2361380E-17
   78.87000        1.8409014E-17
   79.06000        1.3846009E-17
   79.25000        8.7400871E-18
   79.44000        3.1828053E-18
   79.63000       -2.7106975E-18
   79.82000       -8.8029702E-18
   80.01000       -1.4936600E-17
   80.20000       -2.0937715E-17
   80.39000       -2.6620556E-17
   80.58000       -3.1793081E-17
   80.77000       -3.6263370E-17
   80.96000       -3.9846577E-17
   81.15000       -4.2372142E-17
   81.34000       -4.3690846E-17
   81.53000       -4.3681403E-17
   81.72000       -4.2256095E-17
   81.91000       -3.9365228E-17
   82.10000       -3.4999977E-17
   82.29000       -2.9193596E-17
   82.48000       -2.2020713E-17
   82.67000       -1.3594926E-17
   82.86000       -4.0647622E-18
   83.05000        6.3916870E-18
   83.24000        1.7573007E-17
   83.43000        2.9261180E-17
   83.62000        4.1228227E-17
   83.81000        5.3242317E-17
   84.00000        6.5072883E-17
   84.19000        7.6494401E-17
   84.38000        8.7288631E-17
   84.57000        9.7245285E-17
   84.76000        1.0616113E-16
   84.95000        1.1383800E-16
   85.14000        1.2007997E-16
   85.33000        1.2469040E-16
   85.52000        1.2746939E-16
   85.71000        1.2821249E-16
   85.90000        1.2671111E-16
   86.09000        1.2275546E-16
   86.28000        1.1614014E-16
   86.47000        1.0667292E-16
   86.66000        9.4186331E-17
   86.85000        7.8552016E-17
   87.04000        5.9697281E-17
   87.23000        3.7622861E-17
   87.42000        1.2421092E-17
   87.61000       -1.5706696E-17
   87.80000       -4.6434879E-17
   87.99000       -7.9301435E-17
   88.18000       -1.1370038E-16
   88.37000       -1.4887965E-16
   88.56000       -1.8394537E-16
   88.75000       -2.1787325E-16
   88.94000       -2.4952722E-16
   89.13000       -2.7768564E-16
   89.32000       -3.0107471E-16
   89.51000       -3.1840853E-16
   89.70000       -3.2843470E-16
   89.89000       -3.2998485E-16
   90.08000       -3.2202792E-16
   90.27000       -3.0372500E-16
   90.46000       -2.7448359E-16
   90.65000       -2.3400910E-16
   90.84000       -1.8235152E-16
   91.03000       -1.1994475E-16
   91.22000       -4.7636091E-17
   91.41000        3.3296379E-17
   91.60000        1.2114092E-16
   91.79000        2.1376556E-16
   91.98000        3.0864959E-16
   92.17000        4.0293426E-16
   92.36000        4.9349272E-16
   92.55000        5.7701901E-16
   92.74000        6.5013453E-16
   92.93000        7.0950947E-16
   93.12000        7.5199543E-16
   93.31000        7.7476494E-16
   93.50000        7.7545258E-16
   93.69000        7.5229004E-16
   93.88000        7.0423050E-16
   94.07000        6.3105326E-16
   94.26000        5.3344287E-16
   94.45000        4.1303648E-16
   94.64000        2.7243393E-16
   94.83000        1.1516678E-16
   95.02000       -5.4375760E-17
   95.21000       -2.3106418E-16
   95.40000       -4.0918674E-16
   95.59000       -5.8264432E-16
   95.78000       -7.4517538E-16
   95.97000       -8.9060189E-16
   96.16000       -1.0130861E-15
   96.35000       -1.1073883E-15
   96.54000       -1.1691096E-15
   96.73000       -1.1949119E-15
   96.92000       -1.1827009E-15
   97.11000       -1.1317620E-15
   97.30000       -1.0428413E-15
   97.49000       -9.1816487E-16
   97.68000       -7.6139268E-16
   97.87000       -5.7750828E-16
   98.06000       -3.7264500E-16
   98.25000       -1.5385655E-16
   98.44000        7.1159403E-17
   98.63000        2.9437317E-16
   98.82000        5.0775628E-16
   99.01000        7.0362111E-16
   99.20000        8.7495099E-16
   99.39000        1.0157043E-15
   99.58000        1.1210793E-15
   99.77000        1.1877250E-15
   99.96000        1.2138881E-15
   100.1500        1.1994892E-15
   100.3400        1.1461216E-15
   100.5300        1.0569743E-15
   100.7200        9.3668196E-16
   100.9100        7.9110670E-16
   101.1000        6.2706421E-16
   101.2900        4.5200569E-16
   101.4800        2.7367097E-16
   101.6700        9.9729136E-17
   101.8600       -6.2576372E-17
   102.0500       -2.0676130E-16
   102.2400       -3.2739708E-16
   102.4300       -4.2035635E-16
   102.6200       -4.8299634E-16
   102.8100       -5.1427087E-16
   103.0000       -5.1476612E-16
   103.1900       -4.8665833E-16
   103.3800       -4.3359471E-16
   103.5700       -3.6050355E-16
   103.7600       -2.7334087E-16
   103.9500       -1.7878601E-16
   104.1400       -8.3898905E-17
   104.3300        4.2445710E-18
   104.5200        7.8923274E-17
   104.7100        1.3412972E-16
   104.9000        1.6490081E-16
   105.0900        1.6760349E-16
   105.2800        1.4016200E-16
   105.4700        8.2213276E-17
   105.6600       -4.8181955E-18
   105.8500       -1.1773279E-16
   106.0400       -2.5165762E-16
   106.2300       -4.0023659E-16
   106.4200       -5.5590306E-16
   106.6100       -7.1022479E-16
   106.8000       -8.5430764E-16
   106.9900       -9.7924018E-16
   107.1800       -1.0765583E-15
   107.3700       -1.1387074E-15
   107.5600       -1.1594771E-15
   107.7500       -1.1343856E-15
   107.9400       -1.0609891E-15
   108.1300       -9.3909749E-16
   108.3200       -7.7087907E-16
   108.5100       -5.6084407E-16
   108.7000       -3.1570130E-16
   108.8900       -4.4090599E-17
   109.0800        2.4379977E-16
   109.2700        5.3671385E-16
   109.4600        8.2288324E-16
   109.6500        1.0906276E-15
   109.8400        1.3289661E-15
   110.0300        1.5282059E-15
   110.2200        1.6804677E-15
   110.4100        1.7801191E-15
   110.6000        1.8240829E-15
   110.7900        1.8120000E-15
   110.9800        1.7462322E-15
   111.1700        1.6317026E-15
   111.3600        1.4755784E-15
   111.5500        1.2868164E-15
   111.7400        1.0755949E-15
   111.9300        8.5267154E-16
   112.1200        6.2870433E-16
   112.3100        4.1358385E-16
   112.5000        2.1581853E-16
   112.6900        4.2016570E-17
   112.8800       -1.0350052E-16
   113.0700       -2.1892641E-16
   113.2600       -3.0502326E-16
   113.4500       -3.6499685E-16
   113.6400       -4.0420092E-16
   113.8300       -4.2969097E-16
   114.0200       -4.4965845E-16
   114.2100       -4.7278266E-16
   114.4000       -5.0754516E-16
   114.5900       -5.6155172E-16
   114.7800       -6.4090679E-16
   114.9700       -7.4968064E-16
   115.1600       -8.8950223E-16
   115.3500       -1.0593028E-15
   115.5400       -1.2552238E-15
   115.7300       -1.4706925E-15
   115.9200       -1.6966585E-15
   116.1100       -1.9219747E-15
   116.3000       -2.1339007E-15
   116.4900       -2.3186968E-15
   116.6800       -2.4622803E-15
   116.8700       -2.5509098E-15
   117.0600       -2.5718679E-15
   117.2500       -2.5141151E-15
   117.4400       -2.3688881E-15
   117.6300       -2.1302315E-15
   117.8200       -1.7954384E-15
   118.0100       -1.3653959E-15
   118.2000       -8.4482574E-16
   118.3900       -2.4240987E-16
   118.5800        4.2920134E-16
   118.7700        1.1535081E-15
   118.9600        1.9104140E-15
   119.1500        2.6766188E-15
   119.3400        3.4261595E-15
   119.5300        4.1311021E-15
   119.7200        4.7623830E-15
   119.9100        5.2907939E-15
   120.1000        5.6880918E-15
   120.2900        5.9282133E-15
   120.4800        5.9885428E-15
   120.6700        5.8512024E-15
   120.8600        5.5042848E-15
   121.0500        4.9429751E-15
   121.2400        4.1704845E-15
   121.4300        3.1987162E-15
   121.6200        2.0486040E-15
   121.8100        7.5005959E-16
   122.0000       -6.5850957E-16
   122.1900       -2.1311366E-15
   122.3800       -3.6156787E-15
   122.5700       -5.0556178E-15
   122.7600       -6.3922197E-15
   122.9500       -7.5669671E-15
   123.1400       -8.5241550E-15
   123.3300       -9.2135314E-15
   123.5200       -9.5928353E-15
   123.7100       -9.6301099E-15
   123.9000       -9.3056471E-15
   124.0900       -8.6134492E-15
   124.2800       -7.5621213E-15
   124.4700       -6.1751192E-15
   124.6600       -4.4903279E-15
   124.8500       -2.5589736E-15
   125.0400       -4.4391096E-16
   125.2300        1.7826412E-15
   125.4200        4.0418125E-15
   125.6100        6.2511167E-15
   125.8000        8.3276637E-15
   125.9900        1.0191417E-14
   126.1800        1.1768327E-14
   126.3700        1.2993243E-14
   126.5600        1.3812440E-14
   126.7500        1.4185709E-14
   126.9400        1.4087913E-14
   127.1300        1.3509972E-14
   127.3200        1.2459261E-14
   127.5100        1.0959418E-14
   127.7000        9.0496018E-15
   127.8900        6.7832236E-15
   128.0800        4.2262285E-15
   128.2700        1.4549704E-15
   128.4600       -1.4462273E-15
   128.6500       -4.3877679E-15
   128.8400       -7.2776452E-15
   129.0300       -1.0024400E-14
   129.2200       -1.2540090E-14
   129.4100       -1.4743176E-14
   129.6000       -1.6561264E-14
   129.7900       -1.7933576E-14
   129.9800       -1.8813110E-14
   130.1700       -1.9168340E-14
   130.3600       -1.8984453E-14
   130.5500       -1.8263982E-14
   130.7400       -1.7026819E-14
   130.9300       -1.5309587E-14
   131.1200       -1.3164333E-14
   131.3100       -1.0656606E-14
   131.5000       -7.8629637E-15
   131.6900       -4.8680025E-15
   131.8800       -1.7610574E-15
   132.0700        1.3672977E-15
   132.2600        4.4287626E-15
   132.4500        7.3406586E-15
   132.6400        1.0028942E-14
   132.8300        1.2430719E-14
   133.0200        1.4496118E-14
   133.2100        1.6189446E-14
   133.4000        1.7489558E-14
   133.5900        1.8389461E-14
   133.7800        1.8895174E-14
   133.9700        1.9023984E-14
   134.1600        1.8802209E-14
   134.3500        1.8262655E-14
   134.5400        1.7441958E-14
   134.7300        1.6377999E-14
   134.9200        1.5107583E-14
   135.1100        1.3664530E-14
   135.3000        1.2078303E-14
   135.4900        1.0373233E-14
   135.6800        8.5683829E-15
   135.8700        6.6779862E-15
   136.0600        4.7124233E-15
   136.2500        2.6795800E-15
   136.4400        5.8645898E-16
   136.6300       -1.5591101E-15
   136.8200       -3.7468392E-15
   137.0100       -5.9625631E-15
   137.2000       -8.1871621E-15
   137.3900       -1.0395907E-14
   137.5800       -1.2558282E-14
   137.7700       -1.4638279E-14
   137.9600       -1.6595144E-14
   138.1500       -1.8384491E-14
   138.3400       -1.9959722E-14
   138.5300       -2.1273641E-14
   138.7200       -2.2280156E-14
   138.9100       -2.2935997E-14
   139.1000       -2.3202357E-14
   139.2900       -2.3046411E-14
   139.4800       -2.2442685E-14
   139.6700       -2.1374258E-14
   139.8600       -1.9833793E-14
   140.0500       -1.7824429E-14
   140.2400       -1.5360511E-14
   140.4300       -1.2468177E-14
   140.6200       -9.1857936E-15
   140.8100       -5.5641671E-15
   141.0000       -1.6665187E-15
   141.1900        2.4318862E-15
   141.3800        6.6445144E-15
   141.5700        1.0874838E-14
   141.7600        1.5018170E-14
   141.9500        1.8964097E-14
   142.1400        2.2599515E-14
   142.3300        2.5812218E-14
   142.5200        2.8494934E-14