  -30.00000        1.0803968E-18
  -29.81000        1.0803968E-18
  -29.62000        1.0803968E-18
  -29.43000        1.0803968E-18
  -29.24000        1.0803969E-18
  -29.05000        1.0803970E-18
  -28.86000        1.0803971E-18
  -28.67000        1.0803970E-18
  -28.48000        1.0803970E-18
  -28.29000        1.0803970E-18
  -28.10000        1.0803969E-18
  -27.91000        1.0803968E-18
  -27.72000        1.0803967E-18
  -27.53000        1.0803966E-18
  -27.34000        1.0803966E-18
  -27.15000        1.0803966E-18
  -26.96000        1.0803967E-18
  -26.77000        1.0803964E-18
  -26.58000        1.0803967E-18
  -26.39000        1.0803972E-18
  -26.20000        1.0803980E-18
  -26.01000        1.0803980E-18
  -25.82000        1.0803983E-18
  -25.63000        1.0803982E-18
  -25.44000        1.0803975E-18
  -25.25000        1.0803964E-18
  -25.06000        1.0803957E-18
  -24.87000        1.0803952E-18
  -24.68000        1.0803952E-18
  -24.49000        1.0803951E-18
  -24.30000        1.0803954E-18
  -24.11000        1.0803966E-18
  -23.92000        1.0803978E-18
  -23.73000        1.0803982E-18
  -23.54000        1.0803983E-18
  -23.35000        1.0803985E-18
  -23.16000        1.0803979E-18
  -22.97000        1.0803970E-18
  -22.78000        1.0803957E-18
  -22.59000        1.0803954E-18
  -22.40000        1.0803954E-18
  -22.21000        1.0803960E-18
  -22.02000        1.0803968E-18
  -21.83000        1.0803979E-18
  -21.64000        1.0803988E-18
  -21.45000        1.0803988E-18
  -21.26000        1.0803989E-18
  -21.07000        1.0803984E-18
  -20.88000        1.0803981E-18
  -20.69000        1.0803970E-18
  -20.50000        1.0803961E-18
  -20.31000        1.0803951E-18
  -20.12000        1.0803941E-18
  -19.93000        1.0803941E-18
  -19.74000        1.0803949E-18
  -19.55000        1.0803963E-18
  -19.36000        1.0803978E-18
  -19.17000        1.0803995E-18
  -18.98000        1.0804014E-18
  -18.79000        1.0804019E-18
  -18.60000        1.0804009E-18
  -18.41000        1.0803989E-18
  -18.22000        1.0803963E-18
  -18.03000        1.0803943E-18
  -17.84000        1.0803939E-18
  -17.65000        1.0803950E-18
  -17.46000        1.0803969E-18
  -17.27000        1.0803997E-18
  -17.08000        1.0804019E-18
  -16.89000        1.0804025E-18
  -16.70000        1.0804013E-18
  -16.51000        1.0803986E-18
  -16.32000        1.0803953E-18
  -16.13000        1.0803924E-18
  -15.94000        1.0803911E-18
  -15.75000        1.0803915E-18
  -15.56000        1.0803927E-18
  -15.37000        1.0803948E-18
  -15.18000        1.0803965E-18
  -14.99000        1.0803978E-18
  -14.80000        1.0803984E-18
  -14.61000        1.0803979E-18
  -14.42000        1.0803973E-18
  -14.23000        1.0803963E-18
  -14.04000        1.0803950E-18
  -13.85000        1.0803937E-18
  -13.66000        1.0803933E-18
  -13.47000        1.0803937E-18
  -13.28000        1.0803955E-18
  -13.09000        1.0803972E-18
  -12.90000        1.0803992E-18
  -12.71000        1.0804007E-18
  -12.52000        1.0804011E-18
  -12.33000        1.0804003E-18
  -12.14000        1.0803992E-18
  -11.95000        1.0803976E-18
  -11.76000        1.0803957E-18
  -11.57000        1.0803946E-18
  -11.38000        1.0803940E-18
  -11.19000        1.0803953E-18
  -11.00000        1.0803967E-18
  -10.81000        1.0803984E-18
  -10.62000        1.0803995E-18
  -10.43000        1.0803992E-18
  -10.24000        1.0803984E-18
  -10.05000        1.0803967E-18
  -9.860000        1.0803952E-18
  -9.670000        1.0803943E-18
  -9.480000        1.0803945E-18
  -9.290000        1.0803950E-18
  -9.100000        1.0803952E-18
  -8.910000        1.0803965E-18
  -8.720000        1.0803969E-18
  -8.530000        1.0803969E-18
  -8.340000        1.0803968E-18
  -8.150000        1.0803966E-18
  -7.960000        1.0803964E-18
  -7.770000        1.0803965E-18
  -7.580000        1.0803971E-18
  -7.390000        1.0803970E-18
  -7.200000        1.0803964E-18
  -7.010000        1.0803961E-18
  -6.820000        1.0803957E-18
  -6.630000        1.0803947E-18
  -6.440000        1.0803939E-18
  -6.250000        1.0803941E-18
  -6.060000        1.0803945E-18
  -5.870000        1.0803954E-18
  -5.680000        1.0803958E-18
  -5.490000        1.0803963E-18
  -5.300000        1.0803964E-18
  -5.110000        1.0803969E-18
  -4.920000        1.0803973E-18
  -4.730000        1.0803978E-18
  -4.540000        1.0803976E-18
  -4.350000        1.0803980E-18
  -4.160000        1.0803981E-18
  -3.970000        1.0803979E-18
  -3.780000        1.0803983E-18
  -3.590000        1.0803988E-18
  -3.400000        1.0803994E-18
  -3.210000        1.0804000E-18
  -3.020000        1.0804001E-18
  -2.830000        1.0803997E-18
  -2.640000        1.0803985E-18
  -2.450000        1.0803969E-18
  -2.260000        1.0803954E-18
  -2.070000        1.0803939E-18
  -1.880000        1.0803940E-18
  -1.690000        1.0803953E-18
  -1.500000        1.0803970E-18
  -1.310000        1.0803982E-18
  -1.120000        1.0803987E-18
 -0.9300000        1.0803980E-18
 -0.7400000        1.0803964E-18
 -0.5500000        1.0803947E-18
 -0.3600000        1.0803934E-18
 -0.1700000        1.0803929E-18
  2.0000000E-02    1.0803936E-18
  0.2100000        1.0803955E-18
  0.4000000        1.0803982E-18
  0.5900000        1.0804011E-18
  0.7800000        1.0804022E-18
  0.9700000        1.0804020E-18
   1.160000        1.0804001E-18
   1.350000        1.0803972E-18
   1.540000        1.0803953E-18
   1.730000        1.0803940E-18
   1.920000        1.0803948E-18
   2.110000        1.0803967E-18
   2.300000        1.0803997E-18
   2.490000        1.0804021E-18
   2.680000        1.0804037E-18
   2.870000        1.0804029E-18
   3.060000        1.0804015E-18
   3.250000        1.0803988E-18
   3.440000        1.0803962E-18
   3.630000        1.0803934E-18
   3.820000        1.0803918E-18
   4.010000        1.0803918E-18
   4.200000        1.0803937E-18
   4.390000        1.0803971E-18
   4.580000        1.0804007E-18
   4.770000        1.0804032E-18
   4.960000        1.0804047E-18
   5.150000        1.0804043E-18
   5.340000        1.0804024E-18
   5.530000        1.0803992E-18
   5.720000        1.0803959E-18
   5.910000        1.0803934E-18
   6.100000        1.0803928E-18
   6.290000        1.0803932E-18
   6.480000        1.0803949E-18
   6.670000        1.0803964E-18
   6.860000        1.0803975E-18
   7.050000        1.0803969E-18
   7.240000        1.0803945E-18
   7.430000        1.0803915E-18
   7.620000        1.0803877E-18
   7.810000        1.0803857E-18
   8.000000        1.0803861E-18
   8.190000        1.0803879E-18
   8.380000        1.0803906E-18
   8.570000        1.0803940E-18
   8.760000        1.0803971E-18
   8.950000        1.0803991E-18
   9.140000        1.0803992E-18
   9.330000        1.0803987E-18
   9.520000        1.0803976E-18
   9.710000        1.0803970E-18
   9.900000        1.0803976E-18
   10.09000        1.0803989E-18
   10.28000        1.0804012E-18
   10.47000        1.0804031E-18
   10.66000        1.0804047E-18
   10.85000        1.0804046E-18
   11.04000        1.0804031E-18
   11.23000        1.0804002E-18
   11.42000        1.0803969E-18
   11.61000        1.0803936E-18
   11.80000        1.0803907E-18
   11.99000        1.0803898E-18
   12.18000        1.0803905E-18
   12.37000        1.0803925E-18
   12.56000        1.0803958E-18
   12.75000        1.0803992E-18
   12.94000        1.0804011E-18
   13.13000        1.0804009E-18
   13.32000        1.0803989E-18
   13.51000        1.0803961E-18
   13.70000        1.0803928E-18
   13.89000        1.0803909E-18
   14.08000        1.0803909E-18
   14.27000        1.0803932E-18
   14.46000        1.0803970E-18
   14.65000        1.0804013E-18
   14.84000        1.0804045E-18
   15.03000        1.0804059E-18
   15.22000        1.0804051E-18
   15.41000        1.0804015E-18
   15.60000        1.0803968E-18
   15.79000        1.0803919E-18
   15.98000        1.0803882E-18
   16.17000        1.0803876E-18
   16.36000        1.0803900E-18
   16.55000        1.0803952E-18
   16.74000        1.0804019E-18
   16.93000        1.0804080E-18
   17.12000        1.0804125E-18
   17.31000        1.0804144E-18
   17.50000        1.0804134E-18
   17.69000        1.0804101E-18
   17.88000        1.0804058E-18
   18.07000        1.0804014E-18
   18.26000        1.0803975E-18
   18.45000        1.0803945E-18
   18.64000        1.0803921E-18
   18.83000        1.0803891E-18
   19.02000        1.0803850E-18
   19.21000        1.0803807E-18
   19.40000        1.0803765E-18
   19.59000        1.0803744E-18
   19.78000        1.0803758E-18
   19.97000        1.0803836E-18
   20.16000        1.0803981E-18
   20.35000        1.0804195E-18
   20.54000        1.0804442E-18
   20.73000        1.0804677E-18
   20.92000        1.0804832E-18
   21.11000        1.0804838E-18
   21.30000        1.0804640E-18
   21.49000        1.0804201E-18
   21.68000        1.0803516E-18
   21.87000        1.0802634E-18
   22.06000        1.0801658E-18
   22.25000        1.0800739E-18
   22.44000        1.0800071E-18
   22.63000        1.0799859E-18
   22.82000        1.0800300E-18
   23.01000        1.0801508E-18
   23.20000        1.0803520E-18
   23.39000        1.0806216E-18
   23.58000        1.0809364E-18
   23.77000        1.0812621E-18
   23.96000        1.0815575E-18
   24.15000        1.0817813E-18
   24.34000        1.0818962E-18
   24.53000        1.0818718E-18
   24.72000        1.0816886E-18
   24.91000        1.0813351E-18
   25.10000        1.0808098E-18
   25.29000        1.0801183E-18
   25.48000        1.0792747E-18
   25.67000        1.0783058E-18
   25.86000        1.0772578E-18
   26.05000        1.0761996E-18
   26.24000        1.0752323E-18
   26.43000        1.0744873E-18
   26.62000        1.0741230E-18
   26.81000        1.0743082E-18
   27.00000        1.0752017E-18
   27.19000        1.0769201E-18
   27.38000        1.0795077E-18
   27.57000        1.0829086E-18
   27.76000        1.0869492E-18
   27.95000        1.0913361E-18
   28.14000        1.0956707E-18
   28.33000        1.0994843E-18
   28.52000        1.1022807E-18
   28.71000        1.1035931E-18
   28.90000        1.1030373E-18
   29.09000        1.1003620E-18
   29.28000        1.0954848E-18
   29.47000        1.0885126E-18
   29.66000        1.0797357E-18
   29.85000        1.0696076E-18
   30.04000        1.0587006E-18
   30.23000        1.0476569E-18
   30.42000        1.0371387E-18
   30.61000        1.0277957E-18
   30.80000        1.0202613E-18
   30.99000        1.0151746E-18
   31.18000        1.0132167E-18
   31.37000        1.0151441E-18
   31.56000        1.0217785E-18
   31.75000        1.0339315E-18
   31.94000        1.0522522E-18
   32.13000        1.0770084E-18
   32.32000        1.1078451E-18
   32.51000        1.1435820E-18
   32.70000        1.1821096E-18
   32.89000        1.2204476E-18
   33.08000        1.2549610E-18
   33.27000        1.2817224E-18
   33.46000        1.2969590E-18
   33.65000        1.2974994E-18
   33.84000        1.2811568E-18
   34.03000        1.2469886E-18
   34.22000        1.1954177E-18
   34.41000        1.1282263E-18
   34.60000        1.0484385E-18
   34.79000        9.6012456E-19
   34.98000        8.6815418E-19
   35.17000        7.7791534E-19
   35.36000        6.9503096E-19
   35.55000        6.2510044E-19
   35.74000        5.7349430E-19
   35.93000        5.4520824E-19
   36.12000        5.4475556E-19
   36.31000        5.7602914E-19
   36.50000        6.4205139E-19
   36.69000        7.4454129E-19
   36.88000        8.8331071E-19
   37.07000        1.0555742E-18
   37.26000        1.2553776E-18
   37.45000        1.4733644E-18
   37.64000        1.6970762E-18
   37.83000        1.9118350E-18
   38.02000        2.1020748E-18
   38.21000        2.2528438E-18
   38.40000        2.3511161E-18
   38.59000        2.3866332E-18
   38.78000        2.3521855E-18
   38.97000        2.2434652E-18
   39.16000        2.0588230E-18
   39.35000        1.7992729E-18
   39.54000        1.4689636E-18
   39.73000        1.0760688E-18
   39.92000        6.3376935E-19
   40.11000        1.6085131E-19
   40.30000       -3.1852497E-19
   40.49000       -7.7608520E-19
   40.68000       -1.1815872E-18
   40.87000       -1.5054048E-18
   41.06000       -1.7209783E-18
   41.25000       -1.8066417E-18
   41.44000       -1.7466194E-18
   41.63000       -1.5312929E-18
   41.82000       -1.1570867E-18
   42.01000       -6.2635812E-19
   42.20000        5.2440146E-20
   42.39000        8.6427196E-19
   42.58000        1.7868352E-18
   42.77000        2.7898817E-18
   42.96000        3.8347179E-18
   43.15000        4.8739790E-18
   43.34000        5.8517954E-18
   43.53000        6.7045648E-18
   43.72000        7.3627735E-18
   43.91000        7.7543757E-18
   44.10000        7.8101823E-18
   44.29000        7.4712400E-18
   44.48000        6.6975660E-18
   44.67000        5.4769051E-18
   44.86000        3.8317698E-18
   45.05000        1.8230719E-18
   45.24000       -4.5079508E-19
   45.43000       -2.8596511E-18
   45.62000       -5.2513330E-18
   45.81000       -7.4642694E-18
   46.00000       -9.3412497E-18
   46.19000       -1.0742945E-17
   46.38000       -1.1559977E-17
   46.57000       -1.1722516E-17
   46.76000       -1.1206353E-17
   46.95000       -1.0034382E-17
   47.14000       -8.2725522E-18
   47.33000       -6.0201204E-18
   47.52000       -3.3952015E-18
   47.71000       -5.1809946E-19
   47.90000        2.5039440E-18
   48.09000        5.5867154E-18
   48.28000        8.6708041E-18
   48.47000        1.1714280E-17
   48.66000        1.4677847E-17
   48.85000        1.7506178E-17
   49.04000        2.0110238E-17
   49.23000        2.2355244E-17
   49.42000        2.4057653E-17
   49.61000        2.4992959E-17
   49.80000        2.4914369E-17
   49.99000        2.3581152E-17
   50.18000        2.0794239E-17
   50.37000        1.6435399E-17
   50.56000        1.0504691E-17
   50.75000        3.1493376E-18
   50.94000       -5.3234577E-18
   51.13000       -1.4456119E-17
   51.32000       -2.3675464E-17
   51.51000       -3.2349796E-17
   51.70000       -3.9859336E-17
   51.89000       -4.5666292E-17
   52.08000       -4.9369868E-17
   52.27000       -5.0734723E-17
   52.46000       -4.9688518E-17
   52.65000       -4.6292687E-17
   52.84000       -4.0697825E-17
   53.03000       -3.3098454E-17
   53.22000       -2.3700475E-17
   53.41000       -1.2709226E-17
   53.60000       -3.3891890E-19
   53.79000        1.3162047E-17
   53.98000        2.7479000E-17
   54.17000        4.2201564E-17
   54.36000        5.6804346E-17
   54.55000        7.0642554E-17
   54.74000        8.2965064E-17
   54.93000        9.2946130E-17
   55.12000        9.9735760E-17
   55.31000        1.0252708E-16
   55.50000        1.0063602E-16
   55.69000        9.3585507E-17
   55.88000        8.1182946E-17
   56.07000        6.3579047E-17
   56.26000        4.1297644E-17
   56.45000        1.5229677E-17
   56.64000       -1.3410687E-17
   56.83000       -4.3165560E-17
   57.02000       -7.2443307E-17
   57.21000       -9.9650885E-17
   57.40000       -1.2333769E-16
   57.59000       -1.4233497E-16
   57.78000       -1.5587008E-16
   57.97000       -1.6363124E-16
   58.16000       -1.6576046E-16
   58.35000       -1.6276170E-16
   58.54000       -1.5532966E-16
   58.73000       -1.4412571E-16
   58.92000       -1.2954784E-16
   59.11000       -1.1155179E-16
   59.30000       -8.9577354E-17
   59.49000       -6.2614502E-17
   59.68000       -2.9415320E-17
   59.87000        1.1175483E-17
   60.06000        5.9826142E-17
   60.25000        1.1633141E-16
   60.44000        1.7930891E-16
   60.63000        2.4604367E-16
   60.82000        3.1252665E-16
   61.01000        3.7370588E-16
   61.20000        4.2393771E-16
   61.39000        4.5759102E-16
   61.58000        4.6972604E-16
   61.77000        4.5674515E-16
   61.96000        4.1690512E-16
   62.15000        3.5059522E-16
   62.34000        2.6032343E-16
   62.53000        1.5041084E-16
   62.72000        2.6455496E-17
   62.91000       -1.0532315E-16
   63.10000       -2.3872459E-16
   63.29000       -3.6807068E-16
   63.48000       -4.8849264E-16
   63.67000       -5.9598329E-16
   63.86000       -6.8725479E-16
   64.05000       -7.5948717E-16
   64.24000       -8.1006748E-16
   64.43000       -8.3641057E-16
   64.62000       -8.3592385E-16
   64.81000       -8.0614010E-16
   65.00000       -7.4500725E-16
   65.19000       -6.5128866E-16
   65.38000       -5.2500526E-16
   65.57000       -3.6783382E-16
   65.76000       -1.8337005E-16
   65.95000        2.2817857E-17
   66.14000        2.4338997E-16
   66.33000        4.6968337E-16
   66.52000        6.9234626E-16
   66.71000        9.0204954E-16
   66.90000        1.0901471E-15
   67.09000        1.2491735E-15
   67.28000        1.3731170E-15
   67.47000        1.4574662E-15
   67.66000        1.4990962E-15
   67.85000        1.4960820E-15
   68.04000        1.4475322E-15
   68.23000        1.3534914E-15
   68.42000        1.2149228E-15
   68.61000        1.0337361E-15
   68.80000        8.1281520E-16
   68.99000        5.5601540E-16
   69.18000        2.6812267E-16
   69.37000       -4.5198025E-17
   69.56000       -3.7742962E-16
   69.75000       -7.2117994E-16
   69.94000       -1.0681101E-15
   70.13000       -1.4088461E-15
   70.32000       -1.7329336E-15
   70.51000       -2.0289016E-15
   70.70000       -2.2844966E-15
   70.89000       -2.4871276E-15
   71.08000       -2.6245432E-15
   71.27000       -2.6857166E-15
   71.46000       -2.6618845E-15
   71.65000       -2.5476271E-15
   71.84000       -2.3418305E-15
   72.03000       -2.0483406E-15
   72.22000       -1.6761276E-15
   72.41000       -1.2388389E-15
   72.60000       -7.5372634E-16
   72.79000       -2.4007275E-16
   72.98000        2.8263197E-16
   73.17000        7.9644697E-16
   73.36000        1.2863554E-15
   73.55000        1.7410360E-15
   73.74000        2.1529409E-15
   73.93000        2.5177557E-15
   74.12000        2.8334190E-15
   74.31000        3.0989556E-15
   74.50000        3.3133568E-15
   74.69000        3.4747134E-15
   74.88000        3.5797226E-15
   75.07000        3.6236264E-15
   75.26000        3.6005719E-15
   75.45000        3.5043254E-15
   75.64000        3.3292200E-15
   75.83000        3.0711594E-15
   76.02000        2.7285002E-15
   76.21000        2.3026362E-15
   76.40000        1.7981938E-15
   76.59000        1.2228507E-15
   76.78000        5.8689547E-16
   76.97000       -9.7276321E-17
   77.16000       -8.1555048E-16
   77.35000       -1.5522548E-15
   77.54000       -2.2901253E-15
   77.73000       -3.0102217E-15
   77.92000       -3.6920095E-15
   78.11000       -4.3138113E-15
   78.30000       -4.8537084E-15
   78.49000       -5.2908414E-15
   78.68000       -5.6069189E-15
   78.87000       -5.7876592E-15
   79.06000       -5.8239216E-15
   79.25000       -5.7123334E-15
   79.44000       -5.4553530E-15
   79.63000       -5.0607974E-15
   79.82000       -4.5409483E-15
   80.01000       -3.9114029E-15
   80.20000       -3.1898270E-15
   80.39000       -2.3948048E-15
   80.58000       -1.5449277E-15
   80.77000       -6.5824683E-16
   80.96000        2.4788747E-16
   81.15000        1.1566717E-15
   81.34000        2.0515703E-15
   81.53000        2.9161487E-15
   81.72000        3.7342375E-15
   81.91000        4.4905312E-15
   82.10000        5.1715182E-15
   82.29000        5.7664737E-15
   82.48000        6.2681522E-15
   82.67000        6.6728396E-15
   82.86000        6.9796082E-15
   83.05000        7.1888881E-15
   83.24000        7.3006862E-15
   83.43000        7.3129564E-15
   83.62000        7.2205908E-15
   83.81000        7.0153662E-15
   84.00000        6.6868961E-15
   84.19000        6.2244110E-15
   84.38000        5.6189671E-15
   84.57000        4.8656270E-15
   84.76000        3.9651429E-15
   84.95000        2.9248120E-15
   85.14000        1.7583237E-15
   85.33000        4.8461428E-16
   85.52000       -8.7406029E-16
   85.71000       -2.2944361E-15
   85.90000       -3.7544092E-15
   86.09000       -5.2345217E-15
   86.28000       -6.7183231E-15
   86.47000       -8.1914396E-15
   86.66000       -9.6395280E-15
   86.85000       -1.1045599E-14
   87.04000       -1.2387481E-14
   87.23000       -1.3636101E-14
   87.42000       -1.4755124E-14
   87.61000       -1.5702014E-14
   87.80000       -1.6430223E-14
   87.99000       -1.6891905E-14
   88.18000       -1.7040465E-14
   88.37000       -1.6832471E-14
   88.56000       -1.6228782E-14
   88.75000       -1.5195082E-14
   88.94000       -1.3702321E-14
   89.13000       -1.1727567E-14
   89.32000       -9.2556840E-15
   89.51000       -6.2819555E-15
   89.70000       -2.8154837E-15
   89.89000        1.1170811E-15
   90.08000        5.4680644E-15
   90.27000        1.0166251E-14
   90.46000        1.5115906E-14
   90.65000        2.0197894E-14
   90.84000        2.5273115E-14
   91.03000        3.0188295E-14
   91.22000        3.4783665E-14
   91.41000        3.8901784E-14
   91.60000        4.2396418E-14
   91.79000        4.5140463E-14
   91.98000        4.7031847E-14
   92.17000        4.7997054E-14
   92.36000        4.7992158E-14
   92.55000        4.7001882E-14
   92.74000        4.5037392E-14
   92.93000        4.2133584E-14
   93.12000        3.8346357E-14
   93.31000        3.3750092E-14
   93.50000        2.8435218E-14
   93.69000        2.2505657E-14
   93.88000        1.6075860E-14
   94.07000        9.2674298E-15
   94.26000        2.2054313E-15
   94.45000       -4.9853162E-15
   94.64000       -1.2183606E-14
   94.83000       -1.9274606E-14
   95.02000       -2.6151754E-14
   95.21000       -3.2717789E-14
   95.40000       -3.8884921E-14
   95.59000       -4.4574326E-14
   95.78000       -4.9715447E-14
   95.97000       -5.4245416E-14
   96.16000       -5.8109272E-14
   96.35000       -6.1261272E-14
   96.54000       -6.3667557E-14
   96.73000       -6.5309615E-14
   96.92000       -6.6187927E-14
   97.11000       -6.6324496E-14
   97.30000       -6.5763191E-14
   97.49000       -6.4567180E-14
   97.68000       -6.2813239E-14
   97.87000       -6.0583896E-14
   98.06000       -5.7958589E-14
   98.25000       -5.5005645E-14
   98.44000       -5.1776471E-14
   98.63000       -4.8302789E-14
   98.82000       -4.4597169E-14
   99.01000       -4.0656179E-14
   99.20000       -3.6465155E-14
   99.39000       -3.2003446E-14
   99.58000       -2.7249148E-14
   99.77000       -2.2182614E-14
   99.96000       -1.6788439E-14
   100.1500       -1.1055992E-14
   100.3400       -4.9787364E-15
   100.5300        1.4471079E-15
   100.7200        8.2239166E-15
   100.9100        1.5353284E-14
   101.1000        2.2835251E-14
   101.2900        3.0665825E-14
   101.4800        3.8832785E-14
   101.6700        4.7310382E-14
   101.8600        5.6053818E-14
   102.0500        6.4994620E-14
   102.2400        7.4037639E-14
   102.4300        8.3060295E-14
   102.6200        9.1913646E-14
   102.8100        1.0042498E-13
   103.0000        1.0840086E-13
   103.1900        1.1563024E-13
   103.3800        1.2188708E-13
   103.5700        1.2693281E-13
   103.7600        1.3051897E-13
   103.9500        1.3239048E-13
   104.1400        1.3228985E-13
   104.3300        1.2996234E-13
   104.5200        1.2516168E-13
   104.7100        1.1765563E-13
   104.9000        1.0723068E-13
   105.0900        9.3695010E-14
   105.2800        7.6879177E-14
   105.4700        5.6633948E-14
   105.6600        3.2825383E-14
   105.8500        5.3275281E-15
   106.0400       -2.5986434E-14
   106.2300       -6.1252903E-14
   106.4200       -1.0062501E-13
   106.6100       -1.4427649E-13
   106.8000       -1.9240135E-13
   106.9900       -2.4520948E-13
   107.1800       -3.0291928E-13
   107.3700       -3.6574929E-13
   107.5600       -4.3391077E-13
   107.7500       -5.0760416E-13
   107.9400       -5.8701920E-13
   108.1300       -6.7234038E-13
   108.3200       -7.6375462E-13
   108.5100       -8.6146146E-13
   108.7000       -9.6568305E-13
   108.8900       -1.0766723E-12
   109.0800       -1.1947189E-12
   109.2700       -1.3201536E-12
   109.4600       -1.4533505E-12
   109.6500       -1.5947275E-12
   109.8400       -1.7447488E-12
   110.0300       -1.9039262E-12
   110.2200       -2.0728248E-12
   110.4100       -2.2520668E-12
   110.6000       -2.4423415E-12
   110.7900       -2.6444118E-12
   110.9800       -2.8591224E-12
   111.1700       -3.0874029E-12
   111.3600       -3.3302699E-12
   111.5500       -3.5888163E-12
   111.7400       -3.8642024E-12
   111.9300       -4.1576343E-12
   112.1200       -4.4703464E-12
   112.3100       -4.8035772E-12
   112.5000       -5.1585533E-12
   112.6900       -5.5364715E-12
   112.8800       -5.9384875E-12
   113.0700       -6.3657053E-12
   113.2600       -6.8191650E-12
   113.4500       -7.2998317E-12
   113.6400       -7.8085802E-12
   113.8300       -8.3461823E-12
   114.0200       -8.9132885E-12
   114.2100       -9.5104168E-12
   114.4000       -1.0137944E-11
   114.5900       -1.0796103E-11
   114.7800       -1.1484986E-11
   114.9700       -1.2204565E-11
   115.1600       -1.2954702E-11
   115.3500       -1.3735189E-11
   115.5400       -1.4545760E-11
   115.7300       -1.5386132E-11
   115.9200       -1.6256024E-11
   116.1100       -1.7155189E-11
   116.3000       -1.8083424E-11
   116.4900       -1.9040587E-11
   116.6800       -2.0026605E-11
   116.8700       -2.1041478E-11
   117.0600       -2.2085285E-11
   117.2500       -2.3158180E-11
   117.4400       -2.4260404E-11
   117.6300       -2.5392266E-11
   117.8200       -2.6554153E-11
   118.0100       -2.7746524E-11
   118.2000       -2.8969899E-11
   118.3900       -3.0224871E-11
   118.5800       -3.1512095E-11
   118.7700       -3.2832296E-11
   118.9600       -3.4186279E-11
   119.1500       -3.5574928E-11
   119.3400       -3.6999188E-11
   119.5300       -3.8460072E-11
   119.7200       -3.9958609E-11
   119.9100       -4.1495831E-11
   120.1000       -4.3072712E-11
   120.2900       -4.4690127E-11
   120.4800       -4.6348803E-11
   120.6700       -4.8049280E-11
   120.8600       -4.9791886E-11
   121.0500       -5.1576712E-11
   121.2400       -5.3403625E-11
   121.4300       -5.5272259E-11
   121.6200       -5.7182075E-11
   121.8100       -5.9132345E-11
   122.0000       -6.1122218E-11
   122.1900       -6.3150755E-11
   122.3800       -6.5216922E-11
   122.5700       -6.7319657E-11
   122.7600       -6.9457856E-11
   122.9500       -7.1630410E-11
   123.1400       -7.3836201E-11
   123.3300       -7.6074105E-11
   123.5200       -7.8342999E-11
   123.7100       -8.0641806E-11
   123.9000       -8.2969444E-11
   124.0900       -8.5324879E-11
   124.2800       -8.7707085E-11
   124.4700       -9.0115040E-11
   124.6600       -9.2547761E-11
   124.8500       -9.5004185E-11
   125.0400       -9.7483265E-11
   125.2300       -9.9983841E-11
   125.4200       -1.0250468E-10
   125.6100       -1.0504445E-10
   125.8000       -1.0760171E-10
   125.9900       -1.1017492E-10
   126.1800       -1.1276242E-10
   126.3700       -1.1536246E-10
   126.5600       -1.1797321E-10
   126.7500       -1.2059274E-10
   126.9400       -1.2321902E-10
   127.1300       -1.2584997E-10
   127.3200       -1.2848342E-10
   127.5100       -1.3111713E-10
   127.7000       -1.3374882E-10
   127.8900       -1.3637613E-10
   128.0800       -1.3899674E-10
   128.2700       -1.4160827E-10
   128.4600       -1.4420844E-10
   128.6500       -1.4679502E-10
   128.8400       -1.4936585E-10
   129.0300       -1.5191892E-10
   129.2200       -1.5445230E-10
   129.4100       -1.5696415E-10
   129.6000       -1.5945271E-10
   129.7900       -1.6191636E-10
   129.9800       -1.6435345E-10
   130.1700       -1.6676241E-10
   130.3600       -1.6914171E-10
   130.5500       -1.7148982E-10
   130.7400       -1.7380526E-10
   130.9300       -1.7608651E-10
   131.1200       -1.7833213E-10
   131.3100       -1.8054064E-10
   131.5000       -1.8271057E-10
   131.6900       -1.8484049E-10
   131.8800       -1.8692892E-10
   132.0700       -1.8897438E-10
   132.2600       -1.9097533E-10
   132.4500       -1.9293023E-10
   132.6400       -1.9483740E-10
   132.8300       -1.9669513E-10
   133.0200       -1.9850163E-10
   133.2100       -2.0025499E-10
   133.4000       -2.0195325E-10
   133.5900       -2.0359429E-10
   133.7800       -2.0517588E-10
   133.9700       -2.0669561E-10
   134.1600       -2.0815090E-10
   134.3500       -2.0953900E-10
   134.5400       -2.1085693E-10
   134.7300       -2.1210160E-10
   134.9200       -2.1326968E-10
   135.1100       -2.1435777E-10
   135.3000       -2.1536239E-10
   135.4900       -2.1628002E-10
   135.6800       -2.1710717E-10
   135.8700       -2.1784041E-10
   136.0600       -2.1847649E-10
   136.2500       -2.1901223E-10
   136.4400       -2.1944462E-10
   136.6300       -2.1977090E-10
   136.8200       -2.1998840E-10
   137.0100       -2.2009471E-10
   137.2000       -2.2008761E-10
   137.3900       -2.1996513E-10
   137.5800       -2.1972547E-10
   137.7700       -2.1936709E-10
   137.9600       -2.1888867E-10
   138.1500       -2.1828904E-10
   138.3400       -2.1756719E-10
   138.5300       -2.1672215E-10
   138.7200       -2.1575300E-10
   138.9100       -2.1465878E-10
   139.1000       -2.1343838E-10
   139.2900       -2.1209062E-10
   139.4800       -2.1061414E-10
   139.6700       -2.0900739E-10
   139.8600       -2.0726862E-10
   140.0500       -2.0539583E-10
   140.2400       -2.0338679E-10
   140.4300       -2.0123905E-10
   140.6200       -1.9894984E-10
   140.8100       -1.9651619E-10
   141.0000       -1.9393492E-10
   141.1900       -1.9120255E-10
   141.3800       -1.8831553E-10
   141.5700       -1.8527015E-10
   141.7600       -1.8206264E-10
   141.9500       -1.7868920E-10
   142.1400       -1.7514615E-10
   142.3300       -1.7142986E-10
   142.5200       -1.6753690E-10