  -30.00000       -4.5121410E-19
  -29.81000       -4.5121410E-19
  -29.62000       -4.5121410E-19
  -29.43000       -4.5121410E-19
  -29.24000       -4.5121410E-19
  -29.05000       -4.5121415E-19
  -28.86000       -4.5121420E-19
  -28.67000       -4.5121420E-19
  -28.48000       -4.5121420E-19
  -28.29000       -4.5121420E-19
  -28.10000       -4.5121415E-19
  -27.91000       -4.5121415E-19
  -27.72000       -4.5121410E-19
  -27.53000       -4.5121405E-19
  -27.34000       -4.5121400E-19
  -27.15000       -4.5121400E-19
  -26.96000       -4.5121405E-19
  -26.77000       -4.5121436E-19
  -26.58000       -4.5121451E-19
  -26.39000       -4.5121436E-19
  -26.20000       -4.5121400E-19
  -26.01000       -4.5121384E-19
  -25.82000       -4.5121353E-19
  -25.63000       -4.5121384E-19
  -25.44000       -4.5121405E-19
  -25.25000       -4.5121410E-19
  -25.06000       -4.5121415E-19
  -24.87000       -4.5121420E-19
  -24.68000       -4.5121389E-19
  -24.49000       -4.5121322E-19
  -24.30000       -4.5121322E-19
  -24.11000       -4.5121358E-19
  -23.92000       -4.5121348E-19
  -23.73000       -4.5121348E-19
  -23.54000       -4.5121348E-19
  -23.35000       -4.5121332E-19
  -23.16000       -4.5121348E-19
  -22.97000       -4.5121363E-19
  -22.78000       -4.5121400E-19
  -22.59000       -4.5121389E-19
  -22.40000       -4.5121415E-19
  -22.21000       -4.5121472E-19
  -22.02000       -4.5121555E-19
  -21.83000       -4.5121674E-19
  -21.64000       -4.5121694E-19
  -21.45000       -4.5121581E-19
  -21.26000       -4.5121400E-19
  -21.07000       -4.5121198E-19
  -20.88000       -4.5121105E-19
  -20.69000       -4.5121043E-19
  -20.50000       -4.5121079E-19
  -20.31000       -4.5121208E-19
  -20.12000       -4.5121400E-19
  -19.93000       -4.5121539E-19
  -19.74000       -4.5121575E-19
  -19.55000       -4.5121555E-19
  -19.36000       -4.5121529E-19
  -19.17000       -4.5121441E-19
  -18.98000       -4.5121462E-19
  -18.79000       -4.5121544E-19
  -18.60000       -4.5121632E-19
  -18.41000       -4.5121668E-19
  -18.22000       -4.5121643E-19
  -18.03000       -4.5121550E-19
  -17.84000       -4.5121358E-19
  -17.65000       -4.5121250E-19
  -17.46000       -4.5121260E-19
  -17.27000       -4.5121348E-19
  -17.08000       -4.5121601E-19
  -16.89000       -4.5121917E-19
  -16.70000       -4.5122046E-19
  -16.51000       -4.5122061E-19
  -16.32000       -4.5121927E-19
  -16.13000       -4.5121668E-19
  -15.94000       -4.5121472E-19
  -15.75000       -4.5121307E-19
  -15.56000       -4.5121286E-19
  -15.37000       -4.5121348E-19
  -15.18000       -4.5121384E-19
  -14.99000       -4.5121410E-19
  -14.80000       -4.5121358E-19
  -14.61000       -4.5121255E-19
  -14.42000       -4.5121208E-19
  -14.23000       -4.5121203E-19
  -14.04000       -4.5121193E-19
  -13.85000       -4.5121245E-19
  -13.66000       -4.5121312E-19
  -13.47000       -4.5121317E-19
  -13.28000       -4.5121276E-19
  -13.09000       -4.5121281E-19
  -12.90000       -4.5121374E-19
  -12.71000       -4.5121591E-19
  -12.52000       -4.5121793E-19
  -12.33000       -4.5121906E-19
  -12.14000       -4.5121849E-19
  -11.95000       -4.5121710E-19
  -11.76000       -4.5121446E-19
  -11.57000       -4.5121151E-19
  -11.38000       -4.5121038E-19
  -11.19000       -4.5120955E-19
  -11.00000       -4.5120996E-19
  -10.81000       -4.5121126E-19
  -10.62000       -4.5121322E-19
  -10.43000       -4.5121431E-19
  -10.24000       -4.5121400E-19
  -10.05000       -4.5121343E-19
  -9.860000       -4.5121276E-19
  -9.670000       -4.5121317E-19
  -9.480000       -4.5121441E-19
  -9.290000       -4.5121617E-19
  -9.100000       -4.5121813E-19
  -8.910000       -4.5121839E-19
  -8.720000       -4.5121741E-19
  -8.530000       -4.5121467E-19
  -8.340000       -4.5121162E-19
  -8.150000       -4.5120934E-19
  -7.960000       -4.5120774E-19
  -7.770000       -4.5120759E-19
  -7.580000       -4.5120955E-19
  -7.390000       -4.5121250E-19
  -7.200000       -4.5121591E-19
  -7.010000       -4.5121782E-19
  -6.820000       -4.5121860E-19
  -6.630000       -4.5121824E-19
  -6.440000       -4.5121663E-19
  -6.250000       -4.5121575E-19
  -6.060000       -4.5121544E-19
  -5.870000       -4.5121632E-19
  -5.680000       -4.5121741E-19
  -5.490000       -4.5121875E-19
  -5.300000       -4.5121911E-19
  -5.110000       -4.5121829E-19
  -4.920000       -4.5121730E-19
  -4.730000       -4.5121648E-19
  -4.540000       -4.5121601E-19
  -4.350000       -4.5121508E-19
  -4.160000       -4.5121384E-19
  -3.970000       -4.5121193E-19
  -3.780000       -4.5120996E-19
  -3.590000       -4.5120821E-19
  -3.400000       -4.5120821E-19
  -3.210000       -4.5120903E-19
  -3.020000       -4.5121053E-19
  -2.830000       -4.5121203E-19
  -2.640000       -4.5121400E-19
  -2.450000       -4.5121503E-19
  -2.260000       -4.5121508E-19
  -2.070000       -4.5121487E-19
  -1.880000       -4.5121446E-19
  -1.690000       -4.5121467E-19
  -1.500000       -4.5121508E-19
  -1.310000       -4.5121534E-19
  -1.120000       -4.5121570E-19
 -0.9300000       -4.5121524E-19
 -0.7400000       -4.5121415E-19
 -0.5500000       -4.5121317E-19
 -0.3600000       -4.5121296E-19
 -0.1700000       -4.5121384E-19
  2.0000000E-02   -4.5121612E-19
  0.2100000       -4.5121896E-19
  0.4000000       -4.5122139E-19
  0.5900000       -4.5122315E-19
  0.7800000       -4.5122356E-19
  0.9700000       -4.5122258E-19
   1.160000       -4.5122067E-19
   1.350000       -4.5121767E-19
   1.540000       -4.5121467E-19
   1.730000       -4.5121219E-19
   1.920000       -4.5121002E-19
   2.110000       -4.5120846E-19
   2.300000       -4.5120738E-19
   2.490000       -4.5120712E-19
   2.680000       -4.5120702E-19
   2.870000       -4.5120722E-19
   3.060000       -4.5120836E-19
   3.250000       -4.5121027E-19
   3.440000       -4.5121224E-19
   3.630000       -4.5121379E-19
   3.820000       -4.5121570E-19
   4.010000       -4.5121658E-19
   4.200000       -4.5121684E-19
   4.390000       -4.5121668E-19
   4.580000       -4.5121560E-19
   4.770000       -4.5121400E-19
   4.960000       -4.5121219E-19
   5.150000       -4.5121074E-19
   5.340000       -4.5121038E-19
   5.530000       -4.5121089E-19
   5.720000       -4.5121105E-19
   5.910000       -4.5121177E-19
   6.100000       -4.5121172E-19
   6.290000       -4.5121245E-19
   6.480000       -4.5121286E-19
   6.670000       -4.5121307E-19
   6.860000       -4.5121348E-19
   7.050000       -4.5121462E-19
   7.240000       -4.5121570E-19
   7.430000       -4.5121581E-19
   7.620000       -4.5121539E-19
   7.810000       -4.5121400E-19
   8.000000       -4.5121245E-19
   8.190000       -4.5121110E-19
   8.380000       -4.5120996E-19
   8.570000       -4.5121043E-19
   8.760000       -4.5121146E-19
   8.950000       -4.5121265E-19
   9.140000       -4.5121384E-19
   9.330000       -4.5121415E-19
   9.520000       -4.5121358E-19
   9.710000       -4.5121384E-19
   9.900000       -4.5121405E-19
   10.09000       -4.5121498E-19
   10.28000       -4.5121736E-19
   10.47000       -4.5121942E-19
   10.66000       -4.5122103E-19
   10.85000       -4.5122196E-19
   11.04000       -4.5122170E-19
   11.23000       -4.5122092E-19
   11.42000       -4.5122041E-19
   11.61000       -4.5122092E-19
   11.80000       -4.5122134E-19
   11.99000       -4.5122082E-19
   12.18000       -4.5121958E-19
   12.37000       -4.5121720E-19
   12.56000       -4.5121456E-19
   12.75000       -4.5121234E-19
   12.94000       -4.5121157E-19
   13.13000       -4.5121167E-19
   13.32000       -4.5121286E-19
   13.51000       -4.5121400E-19
   13.70000       -4.5121451E-19
   13.89000       -4.5121420E-19
   14.08000       -4.5121307E-19
   14.27000       -4.5121100E-19
   14.46000       -4.5120955E-19
   14.65000       -4.5120965E-19
   14.84000       -4.5121033E-19
   15.03000       -4.5121131E-19
   15.22000       -4.5121151E-19
   15.41000       -4.5121120E-19
   15.60000       -4.5121064E-19
   15.79000       -4.5121043E-19
   15.98000       -4.5121064E-19
   16.17000       -4.5121105E-19
   16.36000       -4.5121270E-19
   16.55000       -4.5121487E-19
   16.74000       -4.5121751E-19
   16.93000       -4.5121875E-19
   17.12000       -4.5121725E-19
   17.31000       -4.5121394E-19
   17.50000       -4.5121012E-19
   17.69000       -4.5120748E-19
   17.88000       -4.5120655E-19
   18.07000       -4.5120779E-19
   18.26000       -4.5121064E-19
   18.45000       -4.5121245E-19
   18.64000       -4.5121141E-19
   18.83000       -4.5120671E-19
   19.02000       -4.5119916E-19
   19.21000       -4.5119223E-19
   19.40000       -4.5118944E-19
   19.59000       -4.5119445E-19
   19.78000       -4.5120852E-19
   19.97000       -4.5123038E-19
   20.16000       -4.5125603E-19
   20.35000       -4.5128012E-19
   20.54000       -4.5129666E-19
   20.73000       -4.5130178E-19
   20.92000       -4.5129449E-19
   21.11000       -4.5127381E-19
   21.30000       -4.5124119E-19
   21.49000       -4.5119745E-19
   21.68000       -4.5114363E-19
   21.87000       -4.5108325E-19
   22.06000       -4.5102400E-19
   22.25000       -4.5097835E-19
   22.44000       -4.5096486E-19
   22.63000       -4.5100136E-19
   22.82000       -4.5109824E-19
   23.01000       -4.5125370E-19
   23.20000       -4.5144581E-19
   23.39000       -4.5163705E-19
   23.58000       -4.5178155E-19
   23.77000       -4.5183810E-19
   23.96000       -4.5178149E-19
   24.15000       -4.5161006E-19
   24.34000       -4.5134784E-19
   24.53000       -4.5103533E-19
   24.72000       -4.5071619E-19
   24.91000       -4.5042895E-19
   25.10000       -4.5020272E-19
   25.29000       -4.5005532E-19
   25.48000       -4.5000337E-19
   25.67000       -4.5006210E-19
   25.86000       -4.5024811E-19
   26.05000       -4.5057185E-19
   26.24000       -4.5102731E-19
   26.43000       -4.5159078E-19
   26.62000       -4.5222155E-19
   26.81000       -4.5287415E-19
   27.00000       -4.5350978E-19
   27.19000       -4.5409905E-19
   27.38000       -4.5461360E-19
   27.57000       -4.5500631E-19
   27.76000       -4.5518808E-19
   27.95000       -4.5502037E-19
   28.14000       -4.5433872E-19
   28.33000       -4.5300458E-19
   28.52000       -4.5097044E-19
   28.71000       -4.4833592E-19
   28.90000       -4.4536283E-19
   29.09000       -4.4243988E-19
   29.28000       -4.4000203E-19
   29.47000       -4.3843028E-19
   29.66000       -4.3796680E-19
   29.85000       -4.3867559E-19
   30.04000       -4.4045201E-19
   30.23000       -4.4306989E-19
   30.42000       -4.4624083E-19
   30.61000       -4.4966851E-19
   30.80000       -4.5308498E-19
   30.99000       -4.5629164E-19
   31.18000       -4.5920989E-19
   31.37000       -4.6193255E-19
   31.56000       -4.6475877E-19
   31.75000       -4.6815104E-19
   31.94000       -4.7258814E-19
   32.13000       -4.7832334E-19
   32.32000       -4.8511708E-19
   32.51000       -4.9206048E-19
   32.70000       -4.9760497E-19
   32.89000       -4.9984048E-19
   33.08000       -4.9697187E-19
   33.27000       -4.8783457E-19
   33.46000       -4.7225530E-19
   33.65000       -4.5111768E-19
   33.84000       -4.2611478E-19
   34.03000       -3.9932113E-19
   34.22000       -3.7278758E-19
   34.41000       -3.4834395E-19
   34.60000       -3.2766224E-19
   34.79000       -3.1245884E-19
   34.98000       -3.0460518E-19
   35.17000       -3.0596069E-19
   35.36000       -3.1789774E-19
   35.55000       -3.4072459E-19
   35.74000       -3.7334370E-19
   35.93000       -4.1345473E-19
   36.12000       -4.5833778E-19
   36.31000       -5.0592408E-19
   36.50000       -5.5559380E-19
   36.69000       -6.0815239E-19
   36.88000       -6.6478459E-19
   37.07000       -7.2530329E-19
   37.26000       -7.8648715E-19
   37.45000       -8.4142911E-19
   37.64000       -8.8048072E-19
   37.83000       -8.9366236E-19
   38.02000       -8.7366547E-19
   38.21000       -8.1816781E-19
   38.40000       -7.3040043E-19
   38.59000       -6.1767975E-19
   38.78000       -4.8861466E-19
   38.97000       -3.5039634E-19
   39.16000       -2.0755978E-19
   39.35000       -6.2828594E-20
   39.54000        8.0523629E-20
   39.73000        2.1632427E-19
   39.92000        3.3484062E-19
   40.11000        4.2465628E-19
   40.30000        4.7646668E-19
   40.49000        4.8686796E-19
   40.68000        4.5980887E-19
   40.87000        4.0432488E-19
   41.06000        3.2904237E-19
   41.25000        2.3591990E-19
   41.44000        1.1656278E-19
   41.63000       -4.6325530E-20
   41.82000       -2.7214948E-19
   42.01000       -5.7282051E-19
   42.20000       -9.4467490E-19
   42.39000       -1.3659659E-18
   42.58000       -1.8015082E-18
   42.77000       -2.2126041E-18
   42.96000       -2.5675556E-18
   43.15000       -2.8475852E-18
   43.34000       -3.0452445E-18
   43.53000       -3.1564079E-18
   43.72000       -3.1707049E-18
   43.91000       -3.0666021E-18
   44.10000       -2.8153378E-18
   44.29000       -2.3932835E-18
   44.48000       -1.7973597E-18
   44.67000       -1.0555313E-18
   44.86000       -2.2582892E-19
   45.05000        6.1757889E-19
   45.24000        1.4063752E-18
   45.43000        2.0988382E-18
   45.62000        2.6900356E-18
   45.81000        3.2068310E-18
   46.00000        3.6901995E-18
   46.19000        4.1732904E-18
   46.38000        4.6652709E-18
   46.57000        5.1472774E-18
   46.76000        5.5797737E-18
   46.95000        5.9142053E-18
   47.14000        6.0997825E-18
   47.33000        6.0801241E-18
   47.52000        5.7822791E-18
   47.71000        5.1080491E-18
   47.90000        3.9396975E-18
   48.09000        2.1669657E-18
   48.28000       -2.6850241E-19
   48.47000       -3.3263979E-18
   48.66000       -6.8390429E-18
   48.85000       -1.0517039E-17
   49.04000       -1.3992902E-17
   49.23000       -1.6890679E-17
   49.42000       -1.8898637E-17
   49.61000       -1.9821259E-17
   49.80000       -1.9596822E-17
   49.99000       -1.8282460E-17
   50.18000       -1.6021820E-17
   50.37000       -1.3014251E-17
   50.56000       -9.4970517E-18
   50.75000       -5.7383583E-18
   50.94000       -2.0263719E-18
   51.13000        1.3613435E-18
   51.32000        4.2140663E-18
   51.51000        6.4568374E-18
   51.70000        8.2033123E-18
   51.89000        9.7602887E-18
   52.08000        1.1565108E-17
   52.27000        1.4063068E-17
   52.46000        1.7558834E-17
   52.65000        2.2090411E-17
   52.84000        2.7368617E-17
   53.03000        3.2801321E-17
   53.22000        3.7590803E-17
   53.41000        4.0869475E-17
   53.60000        4.1834074E-17
   53.79000        3.9852010E-17
   53.98000        3.4536366E-17
   54.17000        2.5803034E-17
   54.36000        1.3924143E-17
   54.55000       -4.2489743E-19
   54.74000       -1.6150905E-17
   54.93000       -3.1800585E-17
   55.12000       -4.5720642E-17
   55.31000       -5.6316938E-17
   55.50000       -6.2364587E-17
   55.69000       -6.3286649E-17
   55.88000       -5.9313892E-17
   56.07000       -5.1469034E-17
   56.26000       -4.1374059E-17
   56.45000       -3.0935377E-17
   56.64000       -2.1993993E-17
   56.83000       -1.6024426E-17
   57.02000       -1.3931181E-17
   57.21000       -1.5947701E-17
   57.40000       -2.1612754E-17
   57.59000       -2.9798331E-17
   57.78000       -3.8786572E-17
   57.97000       -4.6420704E-17
   58.16000       -5.0361750E-17
   58.35000       -4.8455569E-17
   58.54000       -3.9161235E-17
   58.73000       -2.1938294E-17
   58.92000        2.5305668E-18
   59.11000        3.2373404E-17
   59.30000        6.4833516E-17
   59.49000        9.6765057E-17
   59.68000        1.2517351E-16
   59.87000        1.4764679E-16
   60.06000        1.6257794E-16
   60.25000        1.6917232E-16
   60.44000        1.6731495E-16
   60.63000        1.5740873E-16
   60.82000        1.4026615E-16
   61.01000        1.1706815E-16
   61.20000        8.9335056E-17
   61.39000        5.8830204E-17
   61.58000        2.7352370E-17
   61.77000       -3.5501500E-18
   61.96000       -3.2837588E-17
   62.15000       -6.0082019E-17
   62.34000       -8.5340316E-17
   62.53000       -1.0882638E-16
   62.72000       -1.3051809E-16
   62.91000       -1.4988421E-16
   63.10000       -1.6587539E-16
   63.29000       -1.7720703E-16
   63.48000       -1.8282215E-16
   63.67000       -1.8233250E-16
   63.86000       -1.7623978E-16
   64.05000       -1.6583785E-16
   64.24000       -1.5284236E-16
   64.43000       -1.3891074E-16
   64.62000       -1.2524776E-16
   64.81000       -1.1242400E-16
   65.00000       -1.0041122E-16
   65.19000       -8.8727740E-17
   65.38000       -7.6553753E-17
   65.57000       -6.2736336E-17
   65.76000       -4.5720843E-17
   65.95000       -2.3545554E-17
   66.14000        5.9447006E-18
   66.33000        4.4598234E-17
   66.52000        9.3254781E-17
   66.71000        1.5106609E-16
   66.90000        2.1511062E-16
   67.09000        2.8049059E-16
   67.28000        3.4092801E-16
   67.47000        3.8968910E-16
   67.66000        4.2056483E-16
   67.85000        4.2865942E-16
   68.04000        4.1087154E-16
   68.23000        3.6612009E-16
   68.42000        2.9545679E-16
   68.61000        2.0219141E-16
   68.80000        9.2025861E-17
   68.99000       -2.6955000E-17
   69.18000       -1.4465872E-16
   69.37000       -2.4988361E-16
   69.56000       -3.3170398E-16
   69.75000       -3.8108139E-16
   69.94000       -3.9229735E-16
   70.13000       -3.6382527E-16
   70.32000       -2.9844393E-16
   70.51000       -2.0265903E-16
   70.70000       -8.5708061E-17
   70.89000        4.1514541E-17
   71.08000        1.6738822E-16
   71.27000        2.8033222E-16
   71.46000        3.6955854E-16
   71.65000        4.2598587E-16
   71.84000        4.4334996E-16
   72.03000        4.1931061E-16
   72.22000        3.5616682E-16
   72.41000        2.6078461E-16
   72.60000        1.4353961E-16
   72.79000        1.6421428E-17
   72.98000       -1.0923075E-16
   73.17000       -2.2473965E-16
   73.36000       -3.2532791E-16
   73.55000       -4.1036007E-16
   73.74000       -4.8271778E-16
   73.93000       -5.4768229E-16
   74.12000       -6.1171857E-16
   74.31000       -6.8139438E-16
   74.50000       -7.6243225E-16
   74.69000       -8.5874524E-16
   74.88000       -9.7134604E-16
   75.07000       -1.0972193E-15
   75.26000       -1.2284768E-15
   75.45000       -1.3522251E-15
   75.64000       -1.4514555E-15
   75.83000       -1.5069441E-15
   76.02000       -1.4997801E-15
   76.21000       -1.4139002E-15
   76.40000       -1.2380316E-15
   76.59000       -9.6672601E-16
   76.78000       -6.0055949E-16
   76.97000       -1.4587088E-16
   77.16000        3.8553732E-16
   77.35000        9.7652343E-16
   77.54000        1.6046935E-15
   77.73000        2.2428496E-15
   77.92000        2.8602098E-15
   78.11000        3.4245527E-15
   78.30000        3.9050142E-15
   78.49000        4.2749257E-15
   78.68000        4.5140139E-15
   78.87000        4.6095262E-15
   79.06000        4.5562974E-15
   79.25000        4.3561748E-15
   79.44000        4.0173595E-15
   79.63000        3.5540202E-15
   79.82000        2.9861168E-15
   80.01000        2.3389741E-15
   80.20000        1.6420133E-15
   80.39000        9.2632677E-16
   80.58000        2.2130268E-16
   80.77000       -4.4893943E-16
   80.96000       -1.0682921E-15
   81.15000       -1.6297526E-15
   81.34000       -2.1346050E-15
   81.53000       -2.5900969E-15
   81.72000       -3.0064943E-15
   81.91000       -3.3944365E-15
   82.10000       -3.7631497E-15
   82.29000       -4.1195282E-15
   82.48000       -4.4676668E-15
   82.67000       -4.8083574E-15
   82.86000       -5.1383627E-15
   83.05000       -5.4497401E-15
   83.24000       -5.7298137E-15
   83.43000       -5.9623564E-15
   83.62000       -6.1301028E-15
   83.81000       -6.2180947E-15
   84.00000       -6.2169055E-15
   84.19000       -6.1247241E-15
   84.38000       -5.9476650E-15
   84.57000       -5.6983811E-15
   84.76000       -5.3936237E-15
   84.95000       -5.0516549E-15
   85.14000       -4.6901807E-15
   85.33000       -4.3249731E-15
   85.52000       -3.9688322E-15
   85.71000       -3.6303845E-15
   85.90000       -3.3124670E-15
   86.09000       -3.0103504E-15
   86.28000       -2.7105167E-15
   86.47000       -2.3907926E-15
   86.66000       -2.0222325E-15
   86.85000       -1.5724649E-15
   87.04000       -1.0095443E-15
   87.23000       -3.0516572E-16
   87.42000        5.6358380E-16
   87.61000        1.6140161E-15
   87.80000        2.8584819E-15
   87.99000        4.3048095E-15
   88.18000        5.9556809E-15
   88.37000        7.8068062E-15
   88.56000        9.8444837E-15
   88.75000        1.2043629E-14
   88.94000        1.4367158E-14
   89.13000        1.6767039E-14
   89.32000        1.9186567E-14
   89.51000        2.1563013E-14
   89.70000        2.3829949E-14
   89.89000        2.5919152E-14
   90.08000        2.7762718E-14
   90.27000        2.9296281E-14
   90.46000        3.0463940E-14
   90.65000        3.1224382E-14
   90.84000        3.1556870E-14
   91.03000        3.1465045E-14
   91.22000        3.0976822E-14
   91.41000        3.0139824E-14
   91.60000        2.9013148E-14
   91.79000        2.7657501E-14
   91.98000        2.6125982E-14
   92.17000        2.4457082E-14
   92.36000        2.2670395E-14
   92.55000        2.0764416E-14
   92.74000        1.8715374E-14
   92.93000        1.6476580E-14
   93.12000        1.3978720E-14
   93.31000        1.1132338E-14
   93.50000        7.8338147E-15
   93.69000        3.9752667E-15
   93.88000       -5.4268993E-16
   94.07000       -5.7977491E-15
   94.26000       -1.1835214E-14
   94.45000       -1.8662025E-14
   94.64000       -2.6246058E-14
   94.83000       -3.4519500E-14
   95.02000       -4.3383930E-14
   95.21000       -5.2714763E-14
   95.40000       -6.2363892E-14
   95.59000       -7.2160898E-14
   95.78000       -8.1914381E-14
   95.97000       -9.1415123E-14
   96.16000       -1.0044176E-13
   96.35000       -1.0876840E-13
   96.54000       -1.1617244E-13
   96.73000       -1.2244063E-13
   96.92000       -1.2737256E-13
   97.11000       -1.3078179E-13
   97.30000       -1.3249661E-13
   97.49000       -1.3236210E-13
   97.68000       -1.3024494E-13
   97.87000       -1.2604014E-13
   98.06000       -1.1967864E-13
   98.25000       -1.1113293E-13
   98.44000       -1.0041954E-13
   98.63000       -8.7598040E-14
   98.82000       -7.2767577E-14
   99.01000       -5.6063061E-14
   99.20000       -3.7652214E-14
   99.39000       -1.7734273E-14
   99.58000        3.4605182E-15
   99.77000        2.5671702E-14
   99.96000        4.8610547E-14
   100.1500        7.1963194E-14
   100.3400        9.5394084E-14
   100.5300        1.1854879E-13
   100.7200        1.4105613E-13
   100.9100        1.6253012E-13
   101.1000        1.8257435E-13
   101.2900        2.0078958E-13
   101.4800        2.1678576E-13
   101.6700        2.3019642E-13
   101.8600        2.4069272E-13
   102.0500        2.4799366E-13
   102.2400        2.5187027E-13
   102.4300        2.5214414E-13
   102.6200        2.4868226E-13
   102.8100        2.4139219E-13
   103.0000        2.3021992E-13
   103.1900        2.1515156E-13
   103.3800        1.9621703E-13
   103.5700        1.7349273E-13
   103.7600        1.4710095E-13
   103.9500        1.1720487E-13
   104.1400        8.4001281E-14
   104.3300        4.7713793E-14
   104.5200        8.5898272E-15
   104.7100       -3.3098304E-14
   104.9000       -7.7049790E-14
   105.0900       -1.2293386E-13
   105.2800       -1.7039445E-13
   105.4700       -2.1906287E-13
   105.6600       -2.6857802E-13
   105.8500       -3.1860932E-13
   106.0400       -3.6887756E-13
   106.2300       -4.1916974E-13
   106.4200       -4.6934700E-13
   106.6100       -5.1934834E-13
   106.8000       -5.6919383E-13
   106.9900       -6.1899032E-13
   107.1800       -6.6894179E-13
   107.3700       -7.1936055E-13
   107.5600       -7.7067535E-13
   107.7500       -8.2343247E-13
   107.9400       -8.7828784E-13
   108.1300       -9.3599043E-13
   108.3200       -9.9736126E-13
   108.5100       -1.0632741E-12
   108.7000       -1.1346369E-12
   108.8900       -1.2123802E-12
   109.0800       -1.2974471E-12
   109.2700       -1.3907848E-12
   109.4600       -1.4933359E-12
   109.6500       -1.6060303E-12
   109.8400       -1.7297784E-12
   110.0300       -1.8654696E-12
   110.2200       -2.0139738E-12
   110.4100       -2.1761462E-12
   110.6000       -2.3528308E-12
   110.7900       -2.5448608E-12
   110.9800       -2.7530493E-12
   111.1700       -2.9781787E-12
   111.3600       -3.2209808E-12
   111.5500       -3.4821219E-12
   111.7400       -3.7621876E-12
   111.9300       -4.0616698E-12
   112.1200       -4.3809613E-12
   112.3100       -4.7203452E-12
   112.5000       -5.0799915E-12
   112.6900       -5.4599528E-12
   112.8800       -5.8601670E-12
   113.0700       -6.2804636E-12
   113.2600       -6.7205837E-12
   113.4500       -7.1802009E-12
   113.6400       -7.6589429E-12
   113.8300       -8.1564070E-12
   114.0200       -8.6721828E-12
   114.2100       -9.2058531E-12
   114.4000       -9.7570008E-12
   114.5900       -1.0325226E-11
   114.7800       -1.0910159E-11
   114.9700       -1.1511482E-11
   115.1600       -1.2128957E-11
   115.3500       -1.2762441E-11
   115.5400       -1.3411895E-11
   115.7300       -1.4077391E-11
   115.9200       -1.4759098E-11
   116.1100       -1.5457280E-11
   116.3000       -1.6172287E-11
   116.4900       -1.6904563E-11
   116.6800       -1.7654621E-11
   116.8700       -1.8423053E-11
   117.0600       -1.9210484E-11
   117.2500       -2.0017543E-11
   117.4400       -2.0844812E-11
   117.6300       -2.1692769E-11
   117.8200       -2.2561760E-11
   118.0100       -2.3451971E-11
   118.2000       -2.4363430E-11
   118.3900       -2.5296019E-11
   118.5800       -2.6249482E-11
   118.7700       -2.7223453E-11
   118.9600       -2.8217463E-11
   119.1500       -2.9230965E-11
   119.3400       -3.0263337E-11
   119.5300       -3.1313910E-11
   119.7200       -3.2381983E-11
   119.9100       -3.3466837E-11
   120.1000       -3.4567765E-11
   120.2900       -3.5684056E-11
   120.4800       -3.6814975E-11
   120.6700       -3.7959736E-11
   120.8600       -3.9117501E-11
   121.0500       -4.0287329E-11
   121.2400       -4.1468190E-11
   121.4300       -4.2658991E-11
   121.6200       -4.3858549E-11
   121.8100       -4.5065680E-11
   122.0000       -4.6279165E-11
   122.1900       -4.7497815E-11
   122.3800       -4.8720451E-11
   122.5700       -4.9945936E-11
   122.7600       -5.1173166E-11
   122.9500       -5.2401104E-11
   123.1400       -5.3628772E-11
   123.3300       -5.4855266E-11
   123.5200       -5.6079724E-11
   123.7100       -5.7301375E-11
   123.9000       -5.8519481E-11
   124.0900       -5.9733364E-11
   124.2800       -6.0942383E-11
   124.4700       -6.2145920E-11
   124.6600       -6.3343386E-11
   124.8500       -6.4534211E-11
   125.0400       -6.5717834E-11
   125.2300       -6.6893671E-11
   125.4200       -6.8061112E-11
   125.6100       -6.9219477E-11
   125.8000       -7.0368010E-11
   125.9900       -7.1505822E-11
   126.1800       -7.2631956E-11
   126.3700       -7.3745295E-11
   126.5600       -7.4844596E-11
   126.7500       -7.5928493E-11
   126.9400       -7.6995445E-11
   127.1300       -7.8043808E-11
   127.3200       -7.9071742E-11
   127.5100       -8.0077341E-11
   127.7000       -8.1058563E-11
   127.8900       -8.2013382E-11
   128.0800       -8.2939662E-11
   128.2700       -8.3835279E-11
   128.4600       -8.4698033E-11
   128.6500       -8.5525712E-11
   128.8400       -8.6316093E-11
   129.0300       -8.7066958E-11
   129.2200       -8.7776127E-11
   129.4100       -8.8441525E-11
   129.6000       -8.9061147E-11
   129.7900       -8.9633127E-11
   129.9800       -9.0155737E-11
   130.1700       -9.0627367E-11
   130.3600       -9.1046559E-11
   130.5500       -9.1412024E-11
   130.7400       -9.1722636E-11
   130.9300       -9.1977502E-11
   131.1200       -9.2175878E-11
   131.3100       -9.2317286E-11
   131.5000       -9.2401420E-11
   131.6900       -9.2428135E-11
   131.8800       -9.2397458E-11
   132.0700       -9.2309507E-11
   132.2600       -9.2164484E-11
   132.4500       -9.1962611E-11
   132.6400       -9.1704200E-11
   132.8300       -9.1389514E-11
   133.0200       -9.1018769E-11
   133.2100       -9.0592069E-11
   133.4000       -9.0109316E-11
   133.5900       -8.9570198E-11
   133.7800       -8.8974078E-11
   133.9700       -8.8320025E-11
   134.1600       -8.7606727E-11
   134.3500       -8.6832597E-11
   134.5400       -8.5995690E-11
   134.7300       -8.5093758E-11
   134.9200       -8.4124312E-11
   135.1100       -8.3084685E-11
   135.3000       -8.1972006E-11
   135.4900       -8.0783373E-11
   135.6800       -7.9515887E-11
   135.8700       -7.8166751E-11
   136.0600       -7.6733363E-11
   136.2500       -7.5213426E-11
   136.4400       -7.3604976E-11
   136.6300       -7.1906391E-11
   136.8200       -7.0116482E-11
   137.0100       -6.8234370E-11
   137.2000       -6.6259519E-11
   137.3900       -6.4191687E-11
   137.5800       -6.2030929E-11
   137.7700       -5.9777523E-11
   137.9600       -5.7431955E-11
   138.1500       -5.4994901E-11
   138.3400       -5.2467173E-11
   138.5300       -4.9849690E-11
   138.7200       -4.7143501E-11
   138.9100       -4.4349708E-11
   139.1000       -4.1469533E-11
   139.2900       -3.8504294E-11
   139.4800       -3.5455427E-11
   139.6700       -3.2324456E-11
   139.8600       -2.9112955E-11
   140.0500       -2.5822504E-11
   140.2400       -2.2454654E-11
   140.4300       -1.9010831E-11
   140.6200       -1.5492276E-11
   140.8100       -1.1900017E-11
   141.0000       -8.2348182E-12
   141.1900       -4.4971925E-12
   141.3800       -6.8733647E-13
   141.5700        3.1947689E-12
   141.7600        7.1493527E-12
   141.9500        1.1176762E-11
   142.1400        1.5277453E-11
   142.3300        1.9451909E-11
   142.5200        2.3700599E-11