  -30.00000       -1.7170848E-18
  -29.81000       -1.7170848E-18
  -29.62000       -1.7170848E-18
  -29.43000       -1.7170848E-18
  -29.24000       -1.7170850E-18
  -29.05000       -1.7170851E-18
  -28.86000       -1.7170851E-18
  -28.67000       -1.7170851E-18
  -28.48000       -1.7170850E-18
  -28.29000       -1.7170848E-18
  -28.10000       -1.7170847E-18
  -27.91000       -1.7170845E-18
  -27.72000       -1.7170845E-18
  -27.53000       -1.7170848E-18
  -27.34000       -1.7170849E-18
  -27.15000       -1.7170849E-18
  -26.96000       -1.7170843E-18
  -26.77000       -1.7170837E-18
  -26.58000       -1.7170840E-18
  -26.39000       -1.7170848E-18
  -26.20000       -1.7170858E-18
  -26.01000       -1.7170861E-18
  -25.82000       -1.7170858E-18
  -25.63000       -1.7170851E-18
  -25.44000       -1.7170838E-18
  -25.25000       -1.7170832E-18
  -25.06000       -1.7170836E-18
  -24.87000       -1.7170848E-18
  -24.68000       -1.7170853E-18
  -24.49000       -1.7170856E-18
  -24.30000       -1.7170853E-18
  -24.11000       -1.7170843E-18
  -23.92000       -1.7170834E-18
  -23.73000       -1.7170829E-18
  -23.54000       -1.7170841E-18
  -23.35000       -1.7170850E-18
  -23.16000       -1.7170857E-18
  -22.97000       -1.7170858E-18
  -22.78000       -1.7170854E-18
  -22.59000       -1.7170840E-18
  -22.40000       -1.7170834E-18
  -22.21000       -1.7170840E-18
  -22.02000       -1.7170842E-18
  -21.83000       -1.7170842E-18
  -21.64000       -1.7170837E-18
  -21.45000       -1.7170834E-18
  -21.26000       -1.7170833E-18
  -21.07000       -1.7170840E-18
  -20.88000       -1.7170853E-18
  -20.69000       -1.7170868E-18
  -20.50000       -1.7170871E-18
  -20.31000       -1.7170865E-18
  -20.12000       -1.7170855E-18
  -19.93000       -1.7170843E-18
  -19.74000       -1.7170847E-18
  -19.55000       -1.7170849E-18
  -19.36000       -1.7170860E-18
  -19.17000       -1.7170863E-18
  -18.98000       -1.7170864E-18
  -18.79000       -1.7170858E-18
  -18.60000       -1.7170855E-18
  -18.41000       -1.7170861E-18
  -18.22000       -1.7170867E-18
  -18.03000       -1.7170868E-18
  -17.84000       -1.7170861E-18
  -17.65000       -1.7170842E-18
  -17.46000       -1.7170820E-18
  -17.27000       -1.7170814E-18
  -17.08000       -1.7170819E-18
  -16.89000       -1.7170841E-18
  -16.70000       -1.7170867E-18
  -16.51000       -1.7170876E-18
  -16.32000       -1.7170872E-18
  -16.13000       -1.7170864E-18
  -15.94000       -1.7170859E-18
  -15.75000       -1.7170868E-18
  -15.56000       -1.7170881E-18
  -15.37000       -1.7170885E-18
  -15.18000       -1.7170867E-18
  -14.99000       -1.7170837E-18
  -14.80000       -1.7170812E-18
  -14.61000       -1.7170800E-18
  -14.42000       -1.7170810E-18
  -14.23000       -1.7170829E-18
  -14.04000       -1.7170842E-18
  -13.85000       -1.7170831E-18
  -13.66000       -1.7170810E-18
  -13.47000       -1.7170793E-18
  -13.28000       -1.7170798E-18
  -13.09000       -1.7170833E-18
  -12.90000       -1.7170866E-18
  -12.71000       -1.7170882E-18
  -12.52000       -1.7170866E-18
  -12.33000       -1.7170826E-18
  -12.14000       -1.7170792E-18
  -11.95000       -1.7170788E-18
  -11.76000       -1.7170821E-18
  -11.57000       -1.7170871E-18
  -11.38000       -1.7170907E-18
  -11.19000       -1.7170903E-18
  -11.00000       -1.7170877E-18
  -10.81000       -1.7170854E-18
  -10.62000       -1.7170851E-18
  -10.43000       -1.7170873E-18
  -10.24000       -1.7170899E-18
  -10.05000       -1.7170898E-18
  -9.860000       -1.7170873E-18
  -9.670000       -1.7170835E-18
  -9.480000       -1.7170818E-18
  -9.290000       -1.7170825E-18
  -9.100000       -1.7170853E-18
  -8.910000       -1.7170879E-18
  -8.720000       -1.7170888E-18
  -8.530000       -1.7170875E-18
  -8.340000       -1.7170847E-18
  -8.150000       -1.7170832E-18
  -7.960000       -1.7170840E-18
  -7.770000       -1.7170859E-18
  -7.580000       -1.7170870E-18
  -7.390000       -1.7170859E-18
  -7.200000       -1.7170827E-18
  -7.010000       -1.7170792E-18
  -6.820000       -1.7170772E-18
  -6.630000       -1.7170776E-18
  -6.440000       -1.7170796E-18
  -6.250000       -1.7170823E-18
  -6.060000       -1.7170836E-18
  -5.870000       -1.7170833E-18
  -5.680000       -1.7170827E-18
  -5.490000       -1.7170832E-18
  -5.300000       -1.7170851E-18
  -5.110000       -1.7170877E-18
  -4.920000       -1.7170895E-18
  -4.730000       -1.7170897E-18
  -4.540000       -1.7170884E-18
  -4.350000       -1.7170875E-18
  -4.160000       -1.7170885E-18
  -3.970000       -1.7170913E-18
  -3.780000       -1.7170941E-18
  -3.590000       -1.7170951E-18
  -3.400000       -1.7170933E-18
  -3.210000       -1.7170895E-18
  -3.020000       -1.7170874E-18
  -2.830000       -1.7170863E-18
  -2.640000       -1.7170873E-18
  -2.450000       -1.7170885E-18
  -2.260000       -1.7170877E-18
  -2.070000       -1.7170852E-18
  -1.880000       -1.7170828E-18
  -1.690000       -1.7170814E-18
  -1.500000       -1.7170821E-18
  -1.310000       -1.7170840E-18
  -1.120000       -1.7170862E-18
 -0.9300000       -1.7170858E-18
 -0.7400000       -1.7170834E-18
 -0.5500000       -1.7170797E-18
 -0.3600000       -1.7170782E-18
 -0.1700000       -1.7170796E-18
  2.0000000E-02   -1.7170835E-18
  0.2100000       -1.7170876E-18
  0.4000000       -1.7170886E-18
  0.5900000       -1.7170860E-18
  0.7800000       -1.7170834E-18
  0.9700000       -1.7170828E-18
   1.160000       -1.7170844E-18
   1.350000       -1.7170871E-18
   1.540000       -1.7170884E-18
   1.730000       -1.7170860E-18
   1.920000       -1.7170819E-18
   2.110000       -1.7170784E-18
   2.300000       -1.7170774E-18
   2.490000       -1.7170795E-18
   2.680000       -1.7170830E-18
   2.870000       -1.7170860E-18
   3.060000       -1.7170871E-18
   3.250000       -1.7170862E-18
   3.440000       -1.7170854E-18
   3.630000       -1.7170858E-18
   3.820000       -1.7170875E-18
   4.010000       -1.7170895E-18
   4.200000       -1.7170901E-18
   4.390000       -1.7170865E-18
   4.580000       -1.7170798E-18
   4.770000       -1.7170742E-18
   4.960000       -1.7170727E-18
   5.150000       -1.7170750E-18
   5.340000       -1.7170793E-18
   5.530000       -1.7170844E-18
   5.720000       -1.7170868E-18
   5.910000       -1.7170866E-18
   6.100000       -1.7170862E-18
   6.290000       -1.7170871E-18
   6.480000       -1.7170897E-18
   6.670000       -1.7170926E-18
   6.860000       -1.7170945E-18
   7.050000       -1.7170917E-18
   7.240000       -1.7170859E-18
   7.430000       -1.7170799E-18
   7.620000       -1.7170769E-18
   7.810000       -1.7170774E-18
   8.000000       -1.7170797E-18
   8.190000       -1.7170822E-18
   8.380000       -1.7170828E-18
   8.570000       -1.7170813E-18
   8.760000       -1.7170810E-18
   8.950000       -1.7170838E-18
   9.140000       -1.7170884E-18
   9.330000       -1.7170936E-18
   9.520000       -1.7170964E-18
   9.710000       -1.7170942E-18
   9.900000       -1.7170890E-18
   10.09000       -1.7170835E-18
   10.28000       -1.7170806E-18
   10.47000       -1.7170817E-18
   10.66000       -1.7170837E-18
   10.85000       -1.7170853E-18
   11.04000       -1.7170841E-18
   11.23000       -1.7170806E-18
   11.42000       -1.7170781E-18
   11.61000       -1.7170774E-18
   11.80000       -1.7170796E-18
   11.99000       -1.7170824E-18
   12.18000       -1.7170845E-18
   12.37000       -1.7170849E-18
   12.56000       -1.7170838E-18
   12.75000       -1.7170832E-18
   12.94000       -1.7170832E-18
   13.13000       -1.7170846E-18
   13.32000       -1.7170858E-18
   13.51000       -1.7170861E-18
   13.70000       -1.7170844E-18
   13.89000       -1.7170827E-18
   14.08000       -1.7170818E-18
   14.27000       -1.7170828E-18
   14.46000       -1.7170854E-18
   14.65000       -1.7170887E-18
   14.84000       -1.7170898E-18
   15.03000       -1.7170888E-18
   15.22000       -1.7170865E-18
   15.41000       -1.7170845E-18
   15.60000       -1.7170837E-18
   15.79000       -1.7170836E-18
   15.98000       -1.7170832E-18
   16.17000       -1.7170812E-18
   16.36000       -1.7170775E-18
   16.55000       -1.7170742E-18
   16.74000       -1.7170727E-18
   16.93000       -1.7170735E-18
   17.12000       -1.7170766E-18
   17.31000       -1.7170798E-18
   17.50000       -1.7170823E-18
   17.69000       -1.7170841E-18
   17.88000       -1.7170861E-18
   18.07000       -1.7170895E-18
   18.26000       -1.7170933E-18
   18.45000       -1.7170964E-18
   18.64000       -1.7170982E-18
   18.83000       -1.7170975E-18
   19.02000       -1.7170954E-18
   19.21000       -1.7170932E-18
   19.40000       -1.7170928E-18
   19.59000       -1.7170922E-18
   19.78000       -1.7170905E-18
   19.97000       -1.7170871E-18
   20.16000       -1.7170819E-18
   20.35000       -1.7170780E-18
   20.54000       -1.7170769E-18
   20.73000       -1.7170783E-18
   20.92000       -1.7170805E-18
   21.11000       -1.7170831E-18
   21.30000       -1.7170837E-18
   21.49000       -1.7170832E-18
   21.68000       -1.7170834E-18
   21.87000       -1.7170858E-18
   22.06000       -1.7170903E-18
   22.25000       -1.7170940E-18
   22.44000       -1.7170957E-18
   22.63000       -1.7170936E-18
   22.82000       -1.7170884E-18
   23.01000       -1.7170828E-18
   23.20000       -1.7170796E-18
   23.39000       -1.7170790E-18
   23.58000       -1.7170804E-18
   23.77000       -1.7170803E-18
   23.96000       -1.7170769E-18
   24.15000       -1.7170718E-18
   24.34000       -1.7170672E-18
   24.53000       -1.7170667E-18
   24.72000       -1.7170711E-18
   24.91000       -1.7170784E-18
   25.10000       -1.7170846E-18
   25.29000       -1.7170874E-18
   25.48000       -1.7170875E-18
   25.67000       -1.7170882E-18
   25.86000       -1.7170918E-18
   26.05000       -1.7170978E-18
   26.24000       -1.7171028E-18
   26.43000       -1.7171030E-18
   26.62000       -1.7170970E-18
   26.81000       -1.7170870E-18
   27.00000       -1.7170788E-18
   27.19000       -1.7170754E-18
   27.38000       -1.7170779E-18
   27.57000       -1.7170820E-18
   27.76000       -1.7170844E-18
   27.95000       -1.7170828E-18
   28.14000       -1.7170785E-18
   28.33000       -1.7170762E-18
   28.52000       -1.7170776E-18
   28.71000       -1.7170833E-18
   28.90000       -1.7170897E-18
   29.09000       -1.7170931E-18
   29.28000       -1.7170913E-18
   29.47000       -1.7170862E-18
   29.66000       -1.7170810E-18
   29.85000       -1.7170793E-18
   30.04000       -1.7170817E-18
   30.23000       -1.7170861E-18
   30.42000       -1.7170895E-18
   30.61000       -1.7170901E-18
   30.80000       -1.7170881E-18
   30.99000       -1.7170872E-18
   31.18000       -1.7170897E-18
   31.37000       -1.7170940E-18
   31.56000       -1.7170974E-18
   31.75000       -1.7170980E-18
   31.94000       -1.7170946E-18
   32.13000       -1.7170896E-18
   32.32000       -1.7170857E-18
   32.51000       -1.7170844E-18
   32.70000       -1.7170859E-18
   32.89000       -1.7170877E-18
   33.08000       -1.7170881E-18
   33.27000       -1.7170864E-18
   33.46000       -1.7170835E-18
   33.65000       -1.7170812E-18
   33.84000       -1.7170798E-18
   34.03000       -1.7170798E-18
   34.22000       -1.7170803E-18
   34.41000       -1.7170801E-18
   34.60000       -1.7170795E-18
   34.79000       -1.7170801E-18
   34.98000       -1.7170811E-18
   35.17000       -1.7170826E-18
   35.36000       -1.7170827E-18
   35.55000       -1.7170802E-18
   35.74000       -1.7170759E-18
   35.93000       -1.7170721E-18
   36.12000       -1.7170699E-18
   36.31000       -1.7170700E-18
   36.50000       -1.7170715E-18
   36.69000       -1.7170727E-18
   36.88000       -1.7170730E-18
   37.07000       -1.7170743E-18
   37.26000       -1.7170777E-18
   37.45000       -1.7170831E-18
   37.64000       -1.7170902E-18
   37.83000       -1.7170954E-18
   38.02000       -1.7170981E-18
   38.21000       -1.7170976E-18
   38.40000       -1.7170952E-18
   38.59000       -1.7170938E-18
   38.78000       -1.7170935E-18
   38.97000       -1.7170934E-18
   39.16000       -1.7170911E-18
   39.35000       -1.7170847E-18
   39.54000       -1.7170757E-18
   39.73000       -1.7170689E-18
   39.92000       -1.7170682E-18
   40.11000       -1.7170739E-18
   40.30000       -1.7170824E-18
   40.49000       -1.7170884E-18
   40.68000       -1.7170889E-18
   40.87000       -1.7170850E-18
   41.06000       -1.7170813E-18
   41.25000       -1.7170810E-18
   41.44000       -1.7170851E-18
   41.63000       -1.7170920E-18
   41.82000       -1.7170973E-18
   42.01000       -1.7170963E-18
   42.20000       -1.7170911E-18
   42.39000       -1.7170846E-18
   42.58000       -1.7170820E-18
   42.77000       -1.7170847E-18
   42.96000       -1.7170914E-18
   43.15000       -1.7170976E-18
   43.34000       -1.7170987E-18
   43.53000       -1.7170936E-18
   43.72000       -1.7170864E-18
   43.91000       -1.7170825E-18
   44.10000       -1.7170834E-18
   44.29000       -1.7170879E-18
   44.48000       -1.7170910E-18
   44.67000       -1.7170896E-18
   44.86000       -1.7170835E-18
   45.05000       -1.7170756E-18
   45.24000       -1.7170710E-18
   45.43000       -1.7170715E-18
   45.62000       -1.7170755E-18
   45.81000       -1.7170792E-18
   46.00000       -1.7170800E-18
   46.19000       -1.7170777E-18
   46.38000       -1.7170744E-18
   46.57000       -1.7170741E-18
   46.76000       -1.7170787E-18
   46.95000       -1.7170873E-18
   47.14000       -1.7170943E-18
   47.33000       -1.7170969E-18
   47.52000       -1.7170940E-18
   47.71000       -1.7170887E-18
   47.90000       -1.7170858E-18
   48.09000       -1.7170854E-18
   48.28000       -1.7170872E-18
   48.47000       -1.7170884E-18
   48.66000       -1.7170857E-18
   48.85000       -1.7170792E-18
   49.04000       -1.7170724E-18
   49.23000       -1.7170679E-18
   49.42000       -1.7170695E-18
   49.61000       -1.7170746E-18
   49.80000       -1.7170798E-18
   49.99000       -1.7170828E-18
   50.18000       -1.7170828E-18
   50.37000       -1.7170807E-18
   50.56000       -1.7170793E-18
   50.75000       -1.7170796E-18
   50.94000       -1.7170806E-18
   51.13000       -1.7170815E-18
   51.32000       -1.7170821E-18
   51.51000       -1.7170813E-18
   51.70000       -1.7170811E-18
   51.89000       -1.7170823E-18
   52.08000       -1.7170854E-18
   52.27000       -1.7170894E-18
   52.46000       -1.7170932E-18
   52.65000       -1.7170961E-18
   52.84000       -1.7170972E-18
   53.03000       -1.7170976E-18
   53.22000       -1.7170974E-18
   53.41000       -1.7170966E-18
   53.60000       -1.7170967E-18
   53.79000       -1.7170972E-18
   53.98000       -1.7170980E-18
   54.17000       -1.7170987E-18
   54.36000       -1.7170985E-18
   54.55000       -1.7170973E-18
   54.74000       -1.7170938E-18
   54.93000       -1.7170892E-18
   55.12000       -1.7170836E-18
   55.31000       -1.7170787E-18
   55.50000       -1.7170755E-18
   55.69000       -1.7170750E-18
   55.88000       -1.7170765E-18
   56.07000       -1.7170793E-18
   56.26000       -1.7170826E-18
   56.45000       -1.7170847E-18
   56.64000       -1.7170865E-18
   56.83000       -1.7170892E-18
   57.02000       -1.7170928E-18
   57.21000       -1.7170972E-18
   57.40000       -1.7170999E-18
   57.59000       -1.7170988E-18
   57.78000       -1.7170938E-18
   57.97000       -1.7170859E-18
   58.16000       -1.7170770E-18
   58.35000       -1.7170703E-18
   58.54000       -1.7170661E-18
   58.73000       -1.7170636E-18
   58.92000       -1.7170621E-18
   59.11000       -1.7170611E-18
   59.30000       -1.7170622E-18
   59.49000       -1.7170657E-18
   59.68000       -1.7170718E-18
   59.87000       -1.7170794E-18
   60.06000       -1.7170854E-18
   60.25000       -1.7170890E-18
   60.44000       -1.7170885E-18
   60.63000       -1.7170863E-18
   60.82000       -1.7170853E-18
   61.01000       -1.7170871E-18
   61.20000       -1.7170915E-18
   61.39000       -1.7170957E-18
   61.58000       -1.7170972E-18
   61.77000       -1.7170932E-18
   61.96000       -1.7170868E-18
   62.15000       -1.7170799E-18
   62.34000       -1.7170761E-18
   62.53000       -1.7170764E-18
   62.72000       -1.7170796E-18
   62.91000       -1.7170817E-18
   63.10000       -1.7170796E-18
   63.29000       -1.7170743E-18
   63.48000       -1.7170688E-18
   63.67000       -1.7170661E-18
   63.86000       -1.7170681E-18
   64.05000       -1.7170743E-18
   64.24000       -1.7170803E-18
   64.43000       -1.7170834E-18
   64.62000       -1.7170831E-18
   64.81000       -1.7170832E-18
   65.00000       -1.7170871E-18
   65.19000       -1.7170954E-18
   65.38000       -1.7171062E-18
   65.57000       -1.7171137E-18
   65.76000       -1.7171147E-18
   65.95000       -1.7171100E-18
   66.14000       -1.7171029E-18
   66.33000       -1.7170975E-18
   66.52000       -1.7170952E-18
   66.71000       -1.7170948E-18
   66.90000       -1.7170926E-18
   67.09000       -1.7170874E-18
   67.28000       -1.7170794E-18
   67.47000       -1.7170710E-18
   67.66000       -1.7170657E-18
   67.85000       -1.7170670E-18
   68.04000       -1.7170737E-18
   68.23000       -1.7170822E-18
   68.42000       -1.7170882E-18
   68.61000       -1.7170906E-18
   68.80000       -1.7170903E-18
   68.99000       -1.7170904E-18
   69.18000       -1.7170919E-18
   69.37000       -1.7170949E-18
   69.56000       -1.7170969E-18
   69.75000       -1.7170945E-18
   69.94000       -1.7170885E-18
   70.13000       -1.7170814E-18
   70.32000       -1.7170768E-18
   70.51000       -1.7170763E-18
   70.70000       -1.7170805E-18
   70.89000       -1.7170847E-18
   71.08000       -1.7170850E-18
   71.27000       -1.7170812E-18
   71.46000       -1.7170756E-18
   71.65000       -1.7170719E-18
   71.84000       -1.7170726E-18
   72.03000       -1.7170772E-18
   72.22000       -1.7170819E-18
   72.41000       -1.7170846E-18
   72.60000       -1.7170837E-18
   72.79000       -1.7170817E-18
   72.98000       -1.7170806E-18
   73.17000       -1.7170830E-18
   73.36000       -1.7170878E-18
   73.55000       -1.7170920E-18
   73.74000       -1.7170949E-18
   73.93000       -1.7170968E-18
   74.12000       -1.7170983E-18
   74.31000       -1.7171001E-18
   74.50000       -1.7171025E-18
   74.69000       -1.7171039E-18
   74.88000       -1.7171025E-18
   75.07000       -1.7170975E-18
   75.26000       -1.7170913E-18
   75.45000       -1.7170861E-18
   75.64000       -1.7170824E-18
   75.83000       -1.7170795E-18
   76.02000       -1.7170769E-18
   76.21000       -1.7170738E-18
   76.40000       -1.7170704E-18
   76.59000       -1.7170675E-18
   76.78000       -1.7170675E-18
   76.97000       -1.7170715E-18
   77.16000       -1.7170792E-18
   77.35000       -1.7170877E-18
   77.54000       -1.7170957E-18
   77.73000       -1.7171014E-18
   77.92000       -1.7171055E-18
   78.11000       -1.7171067E-18
   78.30000       -1.7171068E-18
   78.49000       -1.7171047E-18
   78.68000       -1.7171003E-18
   78.87000       -1.7170937E-18
   79.06000       -1.7170862E-18
   79.25000       -1.7170815E-18
   79.44000       -1.7170797E-18
   79.63000       -1.7170796E-18
   79.82000       -1.7170796E-18
   80.01000       -1.7170779E-18
   80.20000       -1.7170733E-18
   80.39000       -1.7170675E-18
   80.58000       -1.7170640E-18
   80.77000       -1.7170646E-18
   80.96000       -1.7170675E-18
   81.15000       -1.7170700E-18
   81.34000       -1.7170696E-18
   81.53000       -1.7170669E-18
   81.72000       -1.7170636E-18
   81.91000       -1.7170630E-18
   82.10000       -1.7170673E-18
   82.29000       -1.7170761E-18
   82.48000       -1.7170851E-18
   82.67000       -1.7170899E-18
   82.86000       -1.7170890E-18
   83.05000       -1.7170851E-18
   83.24000       -1.7170830E-18
   83.43000       -1.7170847E-18
   83.62000       -1.7170897E-18
   83.81000       -1.7170947E-18
   84.00000       -1.7170968E-18
   84.19000       -1.7170947E-18
   84.38000       -1.7170913E-18
   84.57000       -1.7170897E-18
   84.76000       -1.7170921E-18
   84.95000       -1.7170979E-18
   85.14000       -1.7171024E-18
   85.33000       -1.7171018E-18
   85.52000       -1.7170965E-18
   85.71000       -1.7170901E-18
   85.90000       -1.7170863E-18
   86.09000       -1.7170880E-18
   86.28000       -1.7170936E-18
   86.47000       -1.7170982E-18
   86.66000       -1.7170983E-18
   86.85000       -1.7170933E-18
   87.04000       -1.7170872E-18
   87.23000       -1.7170833E-18
   87.42000       -1.7170834E-18
   87.61000       -1.7170855E-18
   87.80000       -1.7170845E-18
   87.99000       -1.7170774E-18
   88.18000       -1.7170652E-18
   88.37000       -1.7170531E-18
   88.56000       -1.7170460E-18
   88.75000       -1.7170467E-18
   88.94000       -1.7170537E-18
   89.13000       -1.7170635E-18
   89.32000       -1.7170709E-18
   89.51000       -1.7170743E-18
   89.70000       -1.7170749E-18
   89.89000       -1.7170774E-18
   90.08000       -1.7170840E-18
   90.27000       -1.7170943E-18
   90.46000       -1.7171042E-18
   90.65000       -1.7171097E-18
   90.84000       -1.7171098E-18
   91.03000       -1.7171061E-18
   91.22000       -1.7171025E-18
   91.41000       -1.7171009E-18
   91.60000       -1.7171016E-18
   91.79000       -1.7171009E-18
   91.98000       -1.7170964E-18
   92.17000       -1.7170874E-18
   92.36000       -1.7170774E-18
   92.55000       -1.7170695E-18
   92.74000       -1.7170659E-18
   92.93000       -1.7170663E-18
   93.12000       -1.7170683E-18
   93.31000       -1.7170689E-18
   93.50000       -1.7170682E-18
   93.69000       -1.7170685E-18
   93.88000       -1.7170731E-18
   94.07000       -1.7170816E-18
   94.26000       -1.7170919E-18
   94.45000       -1.7171001E-18
   94.64000       -1.7171038E-18
   94.83000       -1.7171027E-18
   95.02000       -1.7171007E-18
   95.21000       -1.7171003E-18
   95.40000       -1.7171026E-18
   95.59000       -1.7171071E-18
   95.78000       -1.7171095E-18
   95.97000       -1.7171086E-18
   96.16000       -1.7171053E-18
   96.35000       -1.7171020E-18
   96.54000       -1.7171006E-18
   96.73000       -1.7170999E-18
   96.92000       -1.7170990E-18
   97.11000       -1.7170955E-18
   97.30000       -1.7170911E-18
   97.49000       -1.7170871E-18
   97.68000       -1.7170860E-18
   97.87000       -1.7170880E-18
   98.06000       -1.7170911E-18
   98.25000       -1.7170924E-18
   98.44000       -1.7170922E-18
   98.63000       -1.7170917E-18
   98.82000       -1.7170937E-18
   99.01000       -1.7170988E-18
   99.20000       -1.7171035E-18
   99.39000       -1.7171048E-18
   99.58000       -1.7171001E-18
   99.77000       -1.7170894E-18
   99.96000       -1.7170763E-18
   100.1500       -1.7170652E-18
   100.3400       -1.7170598E-18
   100.5300       -1.7170588E-18
   100.7200       -1.7170575E-18
   100.9100       -1.7170548E-18
   101.1000       -1.7170497E-18
   101.2900       -1.7170452E-18
   101.4800       -1.7170460E-18
   101.6700       -1.7170531E-18
   101.8600       -1.7170628E-18
   102.0500       -1.7170712E-18
   102.2400       -1.7170760E-18
   102.4300       -1.7170770E-18
   102.6200       -1.7170774E-18
   102.8100       -1.7170798E-18
   103.0000       -1.7170851E-18
   103.1900       -1.7170890E-18
   103.3800       -1.7170886E-18
   103.5700       -1.7170824E-18
   103.7600       -1.7170731E-18
   103.9500       -1.7170648E-18
   104.1400       -1.7170632E-18
   104.3300       -1.7170666E-18
   104.5200       -1.7170705E-18
   104.7100       -1.7170714E-18
   104.9000       -1.7170681E-18
   105.0900       -1.7170632E-18
   105.2800       -1.7170606E-18
   105.4700       -1.7170642E-18
   105.6600       -1.7170730E-18
   105.8500       -1.7170832E-18
   106.0400       -1.7170904E-18
   106.2300       -1.7170925E-18
   106.4200       -1.7170920E-18
   106.6100       -1.7170916E-18
   106.8000       -1.7170941E-18
   106.9900       -1.7171007E-18
   107.1800       -1.7171083E-18
   107.3700       -1.7171136E-18
   107.5600       -1.7171153E-18
   107.7500       -1.7171151E-18
   107.9400       -1.7171149E-18
   108.1300       -1.7171172E-18
   108.3200       -1.7171209E-18
   108.5100       -1.7171220E-18
   108.7000       -1.7171193E-18
   108.8900       -1.7171124E-18
   109.0800       -1.7171040E-18
   109.2700       -1.7170968E-18
   109.4600       -1.7170922E-18
   109.6500       -1.7170912E-18
   109.8400       -1.7170901E-18
   110.0300       -1.7170867E-18
   110.2200       -1.7170811E-18
   110.4100       -1.7170751E-18
   110.6000       -1.7170710E-18
   110.7900       -1.7170698E-18
   110.9800       -1.7170709E-18
   111.1700       -1.7170720E-18
   111.3600       -1.7170733E-18
   111.5500       -1.7170736E-18
   111.7400       -1.7170735E-18
   111.9300       -1.7170726E-18
   112.1200       -1.7170720E-18
   112.3100       -1.7170703E-18
   112.5000       -1.7170683E-18
   112.6900       -1.7170667E-18
   112.8800       -1.7170646E-18
   113.0700       -1.7170621E-18
   113.2600       -1.7170606E-18
   113.4500       -1.7170605E-18
   113.6400       -1.7170620E-18
   113.8300       -1.7170653E-18
   114.0200       -1.7170685E-18
   114.2100       -1.7170711E-18
   114.4000       -1.7170726E-18
   114.5900       -1.7170741E-18
   114.7800       -1.7170761E-18
   114.9700       -1.7170799E-18
   115.1600       -1.7170847E-18
   115.3500       -1.7170911E-18
   115.5400       -1.7170963E-18
   115.7300       -1.7170996E-18
   115.9200       -1.7171018E-18
   116.1100       -1.7171047E-18
   116.3000       -1.7171093E-18
   116.4900       -1.7171152E-18
   116.6800       -1.7171225E-18
   116.8700       -1.7171287E-18
   117.0600       -1.7171318E-18
   117.2500       -1.7171316E-18
   117.4400       -1.7171296E-18
   117.6300       -1.7171267E-18
   117.8200       -1.7171222E-18
   118.0100       -1.7171181E-18
   118.2000       -1.7171123E-18
   118.3900       -1.7171051E-18
   118.5800       -1.7170972E-18
   118.7700       -1.7170905E-18
   118.9600       -1.7170836E-18
   119.1500       -1.7170775E-18
   119.3400       -1.7170707E-18
   119.5300       -1.7170632E-18
   119.7200       -1.7170543E-18
   119.9100       -1.7170461E-18
   120.1000       -1.7170404E-18
   120.2900       -1.7170375E-18
   120.4800       -1.7170365E-18
   120.6700       -1.7170367E-18
   120.8600       -1.7170360E-18
   121.0500       -1.7170359E-18
   121.2400       -1.7170368E-18
   121.4300       -1.7170400E-18
   121.6200       -1.7170454E-18
   121.8100       -1.7170513E-18
   122.0000       -1.7170560E-18
   122.1900       -1.7170590E-18
   122.3800       -1.7170609E-18
   122.5700       -1.7170640E-18
   122.7600       -1.7170696E-18
   122.9500       -1.7170767E-18
   123.1400       -1.7170831E-18
   123.3300       -1.7170889E-18
   123.5200       -1.7170936E-18
   123.7100       -1.7170968E-18
   123.9000       -1.7170997E-18
   124.0900       -1.7171038E-18
   124.2800       -1.7171090E-18
   124.4700       -1.7171130E-18
   124.6600       -1.7171166E-18
   124.8500       -1.7171184E-18
   125.0400       -1.7171190E-18
   125.2300       -1.7171202E-18
   125.4200       -1.7171205E-18
   125.6100       -1.7171196E-18
   125.8000       -1.7171180E-18
   125.9900       -1.7171167E-18
   126.1800       -1.7171162E-18
   126.3700       -1.7171170E-18
   126.5600       -1.7171189E-18
   126.7500       -1.7171189E-18
   126.9400       -1.7171152E-18
   127.1300       -1.7171098E-18
   127.3200       -1.7171043E-18
   127.5100       -1.7171000E-18
   127.7000       -1.7170994E-18
   127.8900       -1.7171010E-18
   128.0800       -1.7171034E-18
   128.2700       -1.7171030E-18
   128.4600       -1.7170988E-18
   128.6500       -1.7170918E-18
   128.8400       -1.7170823E-18
   129.0300       -1.7170722E-18
   129.2200       -1.7170613E-18
   129.4100       -1.7170500E-18
   129.6000       -1.7170379E-18
   129.7900       -1.7170276E-18
   129.9800       -1.7170210E-18
   130.1700       -1.7170193E-18
   130.3600       -1.7170239E-18
   130.5500       -1.7170328E-18
   130.7400       -1.7170430E-18
   130.9300       -1.7170518E-18
   131.1200       -1.7170596E-18
   131.3100       -1.7170673E-18
   131.5000       -1.7170767E-18
   131.6900       -1.7170865E-18
   131.8800       -1.7170951E-18
   132.0700       -1.7170990E-18
   132.2600       -1.7170962E-18
   132.4500       -1.7170885E-18
   132.6400       -1.7170797E-18
   132.8300       -1.7170735E-18
   133.0200       -1.7170727E-18
   133.2100       -1.7170759E-18
   133.4000       -1.7170803E-18
   133.5900       -1.7170832E-18
   133.7800       -1.7170831E-18
   133.9700       -1.7170817E-18
   134.1600       -1.7170822E-18
   134.3500       -1.7170865E-18
   134.5400       -1.7170939E-18
   134.7300       -1.7171003E-18
   134.9200       -1.7171040E-18
   135.1100       -1.7171051E-18
   135.3000       -1.7171057E-18
   135.4900       -1.7171074E-18
   135.6800       -1.7171122E-18
   135.8700       -1.7171171E-18
   136.0600       -1.7171185E-18
   136.2500       -1.7171151E-18
   136.4400       -1.7171056E-18
   136.6300       -1.7170939E-18
   136.8200       -1.7170842E-18
   137.0100       -1.7170788E-18
   137.2000       -1.7170767E-18
   137.3900       -1.7170762E-18
   137.5800       -1.7170736E-18
   137.7700       -1.7170683E-18
   137.9600       -1.7170629E-18
   138.1500       -1.7170593E-18
   138.3400       -1.7170590E-18
   138.5300       -1.7170623E-18
   138.7200       -1.7170654E-18
   138.9100       -1.7170661E-18
   139.1000       -1.7170641E-18
   139.2900       -1.7170609E-18
   139.4800       -1.7170599E-18
   139.6700       -1.7170634E-18
   139.8600       -1.7170703E-18
   140.0500       -1.7170790E-18
   140.2400       -1.7170863E-18
   140.4300       -1.7170914E-18
   140.6200       -1.7170952E-18
   140.8100       -1.7171004E-18
   141.0000       -1.7171073E-18
   141.1900       -1.7171139E-18
   141.3800       -1.7171160E-18
   141.5700       -1.7171122E-18
   141.7600       -1.7171045E-18
   141.9500       -1.7170961E-18
   142.1400       -1.7170910E-18
   142.3300       -1.7170912E-18
   142.5200       -1.7170951E-18