  -30.00000        2.2723452E-18
  -29.81000        2.2723452E-18
  -29.62000        2.2723452E-18
  -29.43000        2.2723450E-18
  -29.24000        2.2723452E-18
  -29.05000        2.2723458E-18
  -28.86000        2.2723458E-18
  -28.67000        2.2723460E-18
  -28.48000        2.2723458E-18
  -28.29000        2.2723456E-18
  -28.10000        2.2723454E-18
  -27.91000        2.2723446E-18
  -27.72000        2.2723441E-18
  -27.53000        2.2723448E-18
  -27.34000        2.2723450E-18
  -27.15000        2.2723454E-18
  -26.96000        2.2723466E-18
  -26.77000        2.2723468E-18
  -26.58000        2.2723466E-18
  -26.39000        2.2723466E-18
  -26.20000        2.2723458E-18
  -26.01000        2.2723439E-18
  -25.82000        2.2723425E-18
  -25.63000        2.2723421E-18
  -25.44000        2.2723431E-18
  -25.25000        2.2723450E-18
  -25.06000        2.2723468E-18
  -24.87000        2.2723477E-18
  -24.68000        2.2723477E-18
  -24.49000        2.2723456E-18
  -24.30000        2.2723435E-18
  -24.11000        2.2723423E-18
  -23.92000        2.2723421E-18
  -23.73000        2.2723431E-18
  -23.54000        2.2723448E-18
  -23.35000        2.2723470E-18
  -23.16000        2.2723485E-18
  -22.97000        2.2723491E-18
  -22.78000        2.2723487E-18
  -22.59000        2.2723470E-18
  -22.40000        2.2723450E-18
  -22.21000        2.2723433E-18
  -22.02000        2.2723439E-18
  -21.83000        2.2723456E-18
  -21.64000        2.2723479E-18
  -21.45000        2.2723501E-18
  -21.26000        2.2723503E-18
  -21.07000        2.2723489E-18
  -20.88000        2.2723456E-18
  -20.69000        2.2723421E-18
  -20.50000        2.2723398E-18
  -20.31000        2.2723398E-18
  -20.12000        2.2723419E-18
  -19.93000        2.2723450E-18
  -19.74000        2.2723481E-18
  -19.55000        2.2723497E-18
  -19.36000        2.2723485E-18
  -19.17000        2.2723456E-18
  -18.98000        2.2723425E-18
  -18.79000        2.2723400E-18
  -18.60000        2.2723400E-18
  -18.41000        2.2723421E-18
  -18.22000        2.2723448E-18
  -18.03000        2.2723468E-18
  -17.84000        2.2723477E-18
  -17.65000        2.2723470E-18
  -17.46000        2.2723454E-18
  -17.27000        2.2723427E-18
  -17.08000        2.2723406E-18
  -16.89000        2.2723402E-18
  -16.70000        2.2723419E-18
  -16.51000        2.2723460E-18
  -16.32000        2.2723501E-18
  -16.13000        2.2723528E-18
  -15.94000        2.2723530E-18
  -15.75000        2.2723508E-18
  -15.56000        2.2723468E-18
  -15.37000        2.2723437E-18
  -15.18000        2.2723419E-18
  -14.99000        2.2723431E-18
  -14.80000        2.2723466E-18
  -14.61000        2.2723493E-18
  -14.42000        2.2723505E-18
  -14.23000        2.2723495E-18
  -14.04000        2.2723466E-18
  -13.85000        2.2723439E-18
  -13.66000        2.2723421E-18
  -13.47000        2.2723431E-18
  -13.28000        2.2723456E-18
  -13.09000        2.2723491E-18
  -12.90000        2.2723524E-18
  -12.71000        2.2723539E-18
  -12.52000        2.2723532E-18
  -12.33000        2.2723499E-18
  -12.14000        2.2723443E-18
  -11.95000        2.2723398E-18
  -11.76000        2.2723367E-18
  -11.57000        2.2723367E-18
  -11.38000        2.2723396E-18
  -11.19000        2.2723431E-18
  -11.00000        2.2723460E-18
  -10.81000        2.2723456E-18
  -10.62000        2.2723427E-18
  -10.43000        2.2723377E-18
  -10.24000        2.2723348E-18
  -10.05000        2.2723350E-18
  -9.860000        2.2723381E-18
  -9.670000        2.2723433E-18
  -9.480000        2.2723479E-18
  -9.290000        2.2723493E-18
  -9.100000        2.2723481E-18
  -8.910000        2.2723446E-18
  -8.720000        2.2723410E-18
  -8.530000        2.2723400E-18
  -8.340000        2.2723417E-18
  -8.150000        2.2723456E-18
  -7.960000        2.2723503E-18
  -7.770000        2.2723549E-18
  -7.580000        2.2723565E-18
  -7.390000        2.2723551E-18
  -7.200000        2.2723516E-18
  -7.010000        2.2723468E-18
  -6.820000        2.2723431E-18
  -6.630000        2.2723423E-18
  -6.440000        2.2723450E-18
  -6.250000        2.2723493E-18
  -6.060000        2.2723532E-18
  -5.870000        2.2723530E-18
  -5.680000        2.2723483E-18
  -5.490000        2.2723402E-18
  -5.300000        2.2723334E-18
  -5.110000        2.2723305E-18
  -4.920000        2.2723332E-18
  -4.730000        2.2723406E-18
  -4.540000        2.2723495E-18
  -4.350000        2.2723561E-18
  -4.160000        2.2723570E-18
  -3.970000        2.2723543E-18
  -3.780000        2.2723512E-18
  -3.590000        2.2723491E-18
  -3.400000        2.2723499E-18
  -3.210000        2.2723524E-18
  -3.020000        2.2723551E-18
  -2.830000        2.2723551E-18
  -2.640000        2.2723516E-18
  -2.450000        2.2723460E-18
  -2.260000        2.2723390E-18
  -2.070000        2.2723334E-18
  -1.880000        2.2723292E-18
  -1.690000        2.2723286E-18
  -1.500000        2.2723315E-18
  -1.310000        2.2723373E-18
  -1.120000        2.2723437E-18
 -0.9300000        2.2723491E-18
 -0.7400000        2.2723518E-18
 -0.5500000        2.2723508E-18
 -0.3600000        2.2723472E-18
 -0.1700000        2.2723439E-18
  2.0000000E-02    2.2723423E-18
  0.2100000        2.2723427E-18
  0.4000000        2.2723446E-18
  0.5900000        2.2723466E-18
  0.7800000        2.2723452E-18
  0.9700000        2.2723417E-18
   1.160000        2.2723373E-18
   1.350000        2.2723340E-18
   1.540000        2.2723334E-18
   1.730000        2.2723363E-18
   1.920000        2.2723408E-18
   2.110000        2.2723456E-18
   2.300000        2.2723491E-18
   2.490000        2.2723516E-18
   2.680000        2.2723537E-18
   2.870000        2.2723537E-18
   3.060000        2.2723526E-18
   3.250000        2.2723495E-18
   3.440000        2.2723454E-18
   3.630000        2.2723417E-18
   3.820000        2.2723402E-18
   4.010000        2.2723417E-18
   4.200000        2.2723466E-18
   4.390000        2.2723516E-18
   4.580000        2.2723555E-18
   4.770000        2.2723561E-18
   4.960000        2.2723530E-18
   5.150000        2.2723489E-18
   5.340000        2.2723456E-18
   5.530000        2.2723452E-18
   5.720000        2.2723466E-18
   5.910000        2.2723479E-18
   6.100000        2.2723479E-18
   6.290000        2.2723452E-18
   6.480000        2.2723408E-18
   6.670000        2.2723363E-18
   6.860000        2.2723332E-18
   7.050000        2.2723324E-18
   7.240000        2.2723330E-18
   7.430000        2.2723363E-18
   7.620000        2.2723415E-18
   7.810000        2.2723481E-18
   8.000000        2.2723545E-18
   8.190000        2.2723594E-18
   8.380000        2.2723615E-18
   8.570000        2.2723611E-18
   8.760000        2.2723586E-18
   8.950000        2.2723545E-18
   9.140000        2.2723505E-18
   9.330000        2.2723485E-18
   9.520000        2.2723470E-18
   9.710000        2.2723448E-18
   9.900000        2.2723400E-18
   10.09000        2.2723342E-18
   10.28000        2.2723288E-18
   10.47000        2.2723259E-18
   10.66000        2.2723270E-18
   10.85000        2.2723309E-18
   11.04000        2.2723367E-18
   11.23000        2.2723425E-18
   11.42000        2.2723466E-18
   11.61000        2.2723493E-18
   11.80000        2.2723512E-18
   11.99000        2.2723530E-18
   12.18000        2.2723539E-18
   12.37000        2.2723539E-18
   12.56000        2.2723530E-18
   12.75000        2.2723524E-18
   12.94000        2.2723520E-18
   13.13000        2.2723528E-18
   13.32000        2.2723547E-18
   13.51000        2.2723547E-18
   13.70000        2.2723520E-18
   13.89000        2.2723474E-18
   14.08000        2.2723427E-18
   14.27000        2.2723404E-18
   14.46000        2.2723419E-18
   14.65000        2.2723454E-18
   14.84000        2.2723491E-18
   15.03000        2.2723499E-18
   15.22000        2.2723474E-18
   15.41000        2.2723423E-18
   15.60000        2.2723367E-18
   15.79000        2.2723319E-18
   15.98000        2.2723297E-18
   16.17000        2.2723297E-18
   16.36000        2.2723309E-18
   16.55000        2.2723334E-18
   16.74000        2.2723359E-18
   16.93000        2.2723383E-18
   17.12000        2.2723404E-18
   17.31000        2.2723406E-18
   17.50000        2.2723398E-18
   17.69000        2.2723386E-18
   17.88000        2.2723375E-18
   18.07000        2.2723379E-18
   18.26000        2.2723415E-18
   18.45000        2.2723460E-18
   18.64000        2.2723495E-18
   18.83000        2.2723503E-18
   19.02000        2.2723481E-18
   19.21000        2.2723448E-18
   19.40000        2.2723431E-18
   19.59000        2.2723448E-18
   19.78000        2.2723489E-18
   19.97000        2.2723541E-18
   20.16000        2.2723568E-18
   20.35000        2.2723559E-18
   20.54000        2.2723514E-18
   20.73000        2.2723452E-18
   20.92000        2.2723406E-18
   21.11000        2.2723386E-18
   21.30000        2.2723394E-18
   21.49000        2.2723412E-18
   21.68000        2.2723421E-18
   21.87000        2.2723421E-18
   22.06000        2.2723419E-18
   22.25000        2.2723415E-18
   22.44000        2.2723421E-18
   22.63000        2.2723429E-18
   22.82000        2.2723446E-18
   23.01000        2.2723474E-18
   23.20000        2.2723510E-18
   23.39000        2.2723549E-18
   23.58000        2.2723578E-18
   23.77000        2.2723582E-18
   23.96000        2.2723543E-18
   24.15000        2.2723470E-18
   24.34000        2.2723394E-18
   24.53000        2.2723346E-18
   24.72000        2.2723342E-18
   24.91000        2.2723377E-18
   25.10000        2.2723419E-18
   25.29000        2.2723441E-18
   25.48000        2.2723433E-18
   25.67000        2.2723415E-18
   25.86000        2.2723408E-18
   26.05000        2.2723452E-18
   26.24000        2.2723537E-18
   26.43000        2.2723621E-18
   26.62000        2.2723675E-18
   26.81000        2.2723685E-18
   27.00000        2.2723654E-18
   27.19000        2.2723601E-18
   27.38000        2.2723545E-18
   27.57000        2.2723510E-18
   27.76000        2.2723497E-18
   27.95000        2.2723493E-18
   28.14000        2.2723474E-18
   28.33000        2.2723443E-18
   28.52000        2.2723396E-18
   28.71000        2.2723357E-18
   28.90000        2.2723338E-18
   29.09000        2.2723348E-18
   29.28000        2.2723388E-18
   29.47000        2.2723460E-18
   29.66000        2.2723543E-18
   29.85000        2.2723627E-18
   30.04000        2.2723681E-18
   30.23000        2.2723687E-18
   30.42000        2.2723632E-18
   30.61000        2.2723526E-18
   30.80000        2.2723408E-18
   30.99000        2.2723315E-18
   31.18000        2.2723280E-18
   31.37000        2.2723290E-18
   31.56000        2.2723326E-18
   31.75000        2.2723344E-18
   31.94000        2.2723338E-18
   32.13000        2.2723328E-18
   32.32000        2.2723336E-18
   32.51000        2.2723386E-18
   32.70000        2.2723491E-18
   32.89000        2.2723605E-18
   33.08000        2.2723677E-18
   33.27000        2.2723685E-18
   33.46000        2.2723632E-18
   33.65000        2.2723539E-18
   33.84000        2.2723456E-18
   34.03000        2.2723398E-18
   34.22000        2.2723377E-18
   34.41000        2.2723383E-18
   34.60000        2.2723388E-18
   34.79000        2.2723388E-18
   34.98000        2.2723386E-18
   35.17000        2.2723388E-18
   35.36000        2.2723415E-18
   35.55000        2.2723452E-18
   35.74000        2.2723495E-18
   35.93000        2.2723541E-18
   36.12000        2.2723594E-18
   36.31000        2.2723642E-18
   36.50000        2.2723673E-18
   36.69000        2.2723669E-18
   36.88000        2.2723621E-18
   37.07000        2.2723534E-18
   37.26000        2.2723425E-18
   37.45000        2.2723342E-18
   37.64000        2.2723311E-18
   37.83000        2.2723330E-18
   38.02000        2.2723367E-18
   38.21000        2.2723381E-18
   38.40000        2.2723355E-18
   38.59000        2.2723299E-18
   38.78000        2.2723239E-18
   38.97000        2.2723220E-18
   39.16000        2.2723243E-18
   39.35000        2.2723301E-18
   39.54000        2.2723357E-18
   39.73000        2.2723383E-18
   39.92000        2.2723375E-18
   40.11000        2.2723346E-18
   40.30000        2.2723330E-18
   40.49000        2.2723344E-18
   40.68000        2.2723392E-18
   40.87000        2.2723448E-18
   41.06000        2.2723495E-18
   41.25000        2.2723516E-18
   41.44000        2.2723508E-18
   41.63000        2.2723470E-18
   41.82000        2.2723415E-18
   42.01000        2.2723357E-18
   42.20000        2.2723303E-18
   42.39000        2.2723253E-18
   42.58000        2.2723214E-18
   42.77000        2.2723191E-18
   42.96000        2.2723181E-18
   43.15000        2.2723162E-18
   43.34000        2.2723135E-18
   43.53000        2.2723117E-18
   43.72000        2.2723123E-18
   43.91000        2.2723199E-18
   44.10000        2.2723365E-18
   44.29000        2.2723609E-18
   44.48000        2.2723907E-18
   44.67000        2.2724217E-18
   44.86000        2.2724506E-18
   45.05000        2.2724798E-18
   45.24000        2.2725110E-18
   45.43000        2.2725480E-18
   45.62000        2.2725908E-18
   45.81000        2.2726332E-18
   46.00000        2.2726680E-18
   46.19000        2.2726847E-18
   46.38000        2.2726781E-18
   46.57000        2.2726467E-18
   46.76000        2.2725908E-18
   46.95000        2.2725104E-18
   47.14000        2.2724062E-18
   47.33000        2.2722753E-18
   47.52000        2.2721144E-18
   47.71000        2.2719231E-18
   47.90000        2.2717035E-18
   48.09000        2.2714624E-18
   48.28000        2.2712092E-18
   48.47000        2.2709574E-18
   48.66000        2.2707229E-18
   48.85000        2.2705233E-18
   49.04000        2.2703757E-18
   49.23000        2.2702979E-18
   49.42000        2.2703060E-18
   49.61000        2.2704137E-18
   49.80000        2.2706377E-18
   49.99000        2.2709940E-18
   50.18000        2.2714979E-18
   50.37000        2.2721609E-18
   50.56000        2.2729867E-18
   50.75000        2.2739644E-18
   50.94000        2.2750699E-18
   51.13000        2.2762660E-18
   51.32000        2.2775086E-18
   51.51000        2.2787463E-18
   51.70000        2.2799244E-18
   51.89000        2.2809836E-18
   52.08000        2.2818526E-18
   52.27000        2.2824523E-18
   52.46000        2.2826963E-18
   52.65000        2.2824998E-18
   52.84000        2.2817848E-18
   53.03000        2.2804886E-18
   53.22000        2.2785685E-18
   53.41000        2.2760042E-18
   53.60000        2.2728012E-18
   53.79000        2.2689924E-18
   53.98000        2.2646423E-18
   54.17000        2.2598494E-18
   54.36000        2.2547496E-18
   54.55000        2.2495150E-18
   54.74000        2.2443548E-18
   54.93000        2.2395129E-18
   55.12000        2.2352623E-18
   55.31000        2.2318960E-18
   55.50000        2.2297148E-18
   55.69000        2.2290129E-18
   55.88000        2.2300595E-18
   56.07000        2.2330861E-18
   56.26000        2.2382726E-18
   56.45000        2.2457356E-18
   56.64000        2.2555168E-18
   56.83000        2.2675715E-18
   57.02000        2.2817529E-18
   57.21000        2.2978021E-18
   57.40000        2.3153406E-18
   57.59000        2.3338709E-18
   57.78000        2.3527841E-18
   57.97000        2.3713730E-18
   58.16000        2.3888511E-18
   58.35000        2.4043690E-18
   58.54000        2.4170379E-18
   58.73000        2.4259561E-18
   58.92000        2.4302407E-18
   59.11000        2.4290612E-18
   59.30000        2.4216835E-18
   59.49000        2.4075088E-18
   59.68000        2.3861150E-18
   59.87000        2.3572933E-18
   60.06000        2.3210866E-18
   60.25000        2.2778174E-18
   60.44000        2.2281164E-18
   60.63000        2.1729363E-18
   60.82000        2.1135581E-18
   61.01000        2.0515866E-18
   61.20000        1.9889316E-18
   61.39000        1.9277823E-18
   61.58000        1.8705670E-18
   61.77000        1.8198991E-18
   61.96000        1.7785045E-18
   62.15000        1.7491361E-18
   62.34000        1.7344754E-18
   62.53000        1.7370222E-18
   62.72000        1.7589865E-18
   62.91000        1.8021703E-18
   63.10000        1.8678582E-18
   63.29000        1.9566986E-18
   63.48000        2.0686077E-18
   63.67000        2.2026713E-18
   63.86000        2.3570745E-18
   64.05000        2.5290526E-18
   64.24000        2.7148771E-18
   64.43000        2.9098696E-18
   64.62000        3.1084593E-18
   64.81000        3.3042712E-18
   65.00000        3.4902534E-18
   65.19000        3.6588436E-18
   65.38000        3.8021717E-18
   65.57000        3.9122913E-18
   65.76000        3.9814387E-18
   65.95000        4.0023155E-18
   66.14000        3.9683754E-18
   66.33000        3.8741219E-18
   66.52000        3.7153959E-18
   66.71000        3.4896575E-18
   66.90000        3.1962431E-18
   67.09000        2.8365926E-18
   67.28000        2.4144370E-18
   67.47000        1.9359438E-18
   67.66000        1.4098015E-18
   67.85000        8.4724858E-19
   68.04000        2.6202719E-19
   68.23000       -3.2974242E-19
   68.42000       -9.0977708E-19
   68.61000       -1.4579474E-18
   68.80000       -1.9526951E-18
   68.99000       -2.3715651E-18
   69.18000       -2.6918320E-18
   69.37000       -2.8912347E-18
   69.56000       -2.9487986E-18
   69.75000       -2.8457308E-18
   69.94000       -2.5663640E-18
   70.13000       -2.0991211E-18
   70.32000       -1.4374552E-18
   70.51000       -5.8072137E-19
   70.70000        4.6507315E-19
   70.89000        1.6866828E-18
   71.08000        3.0632516E-18
   71.27000        4.5662057E-18
   71.46000        6.1594387E-18
   71.65000        7.7998218E-18
   71.84000        9.4380539E-18
   72.03000        1.1019850E-17
   72.22000        1.2487437E-17
   72.41000        1.3781339E-17
   72.60000        1.4842375E-17
   72.79000        1.5613830E-17
   72.98000        1.6043706E-17
   73.17000        1.6086979E-17
   73.36000        1.5707759E-17
   73.55000        1.4881270E-17
   73.74000        1.3595545E-17
   73.93000        1.1852774E-17
   74.12000        9.6702203E-18
   74.31000        7.0806569E-18
   74.50000        4.1322833E-18
   74.69000        8.8811260E-19
   74.88000       -2.5751954E-18
   75.07000       -6.1690146E-18
   75.26000       -9.7949260E-18
   75.45000       -1.3347309E-17
   75.64000       -1.6716299E-17
   75.83000       -1.9791008E-17
   76.02000       -2.2462925E-17
   76.21000       -2.4629397E-17
   76.40000       -2.6197048E-17
   76.59000       -2.7085078E-17
   76.78000       -2.7228265E-17
   76.97000       -2.6579623E-17
   77.16000       -2.5112565E-17
   77.35000       -2.2822525E-17
   77.54000       -1.9727953E-17
   77.73000       -1.5870613E-17
   77.92000       -1.1315193E-17
   78.11000       -6.1481746E-18
   78.30000       -4.7601964E-19
   78.49000        5.5773104E-18
   78.68000        1.1873426E-17
   78.87000        1.8263059E-17
   79.06000        2.4590007E-17
   79.25000        3.0695293E-17
   79.44000        3.6421454E-17
   79.63000        4.1616724E-17
   79.82000        4.6139046E-17
   80.01000        4.9859691E-17
   80.20000        5.2666418E-17
   80.39000        5.4466038E-17
   80.58000        5.5186384E-17
   80.77000        5.4777558E-17
   80.96000        5.3212575E-17
   81.15000        5.0487329E-17
   81.34000        4.6620032E-17
   81.53000        4.1650172E-17
   81.72000        3.5637121E-17
   81.91000        2.8658513E-17
   82.10000        2.0808546E-17
   82.29000        1.2196308E-17
   82.48000        2.9442534E-18
   82.67000       -6.8131165E-18
   82.86000       -1.6930293E-17
   83.05000       -2.7251503E-17
   83.24000       -3.7611201E-17
   83.43000       -4.7834336E-17
   83.62000       -5.7736485E-17
   83.81000       -6.7124013E-17
   84.00000       -7.5794341E-17
   84.19000       -8.3536619E-17
   84.38000       -9.0132948E-17
   84.57000       -9.5360359E-17
   84.76000       -9.8993826E-17
   84.95000       -1.0081047E-16
   85.14000       -1.0059509E-16
   85.33000       -9.8147216E-17
   85.52000       -9.3289469E-17
   85.71000       -8.5877415E-17
   85.90000       -7.5810448E-17
   86.09000       -6.3043511E-17
   86.28000       -4.7599036E-17
   86.47000       -2.9578486E-17
   86.66000       -9.1728498E-18
   86.85000        1.3329018E-17
   87.04000        3.7534865E-17
   87.23000        6.2947353E-17
   87.42000        8.8967007E-17
   87.61000        1.1490040E-16
   87.80000        1.3997405E-16
   87.99000        1.6335397E-16
   88.18000        1.8417113E-16
   88.37000        2.0155174E-16
   88.56000        2.1465170E-16
   88.75000        2.2269380E-16
   88.94000        2.2500615E-16
   89.13000        2.2105985E-16
   89.32000        2.1050369E-16
   89.51000        1.9319413E-16
   89.70000        1.6921848E-16
   89.89000        1.3890930E-16
   90.08000        1.0284908E-16
   90.27000        6.1863865E-17
   90.46000        1.7005991E-17
   90.65000       -3.0474300E-17
   90.84000       -7.9167240E-17
   91.03000       -1.2755047E-16
   91.22000       -1.7404273E-16
   91.41000       -2.1706188E-16
   91.60000       -2.5508477E-16
   91.79000       -2.8670623E-16
   91.98000       -3.1069457E-16
   92.17000       -3.2604117E-16
   92.36000       -3.3200192E-16
   92.55000       -3.2812937E-16
   92.74000       -3.1429361E-16
   92.93000       -2.9069210E-16
   93.12000       -2.5784766E-16
   93.31000       -2.1659532E-16
   93.50000       -1.6805867E-16
   93.69000       -1.1361674E-16
   93.88000       -5.4862671E-17
   94.07000        6.4445265E-18
   94.26000        6.8433519E-17
   94.45000        1.2917829E-16
   94.64000        1.8675828E-16
   94.83000        2.3931963E-16
   95.02000        2.8513585E-16
   95.21000        3.2266688E-16
   95.40000        3.5061391E-16
   95.59000        3.6796969E-16
   95.78000        3.7406058E-16
   95.97000        3.6858046E-16
   96.16000        3.5161275E-16
   96.35000        3.2363988E-16
   96.54000        2.8553806E-16
   96.73000        2.3855637E-16
   96.92000        1.8427932E-16
   97.11000        1.2457343E-16
   97.30000        6.1518693E-17
   97.49000       -2.6726439E-18
   97.68000       -6.5747041E-17
   97.87000       -1.2550629E-16
   98.06000       -1.7990473E-16
   98.25000       -2.2714205E-16
   98.44000       -2.6574560E-16
   98.63000       -2.9463713E-16
   98.82000       -3.1317916E-16
   99.01000       -3.2119717E-16
   99.20000       -3.1897540E-16
   99.39000       -3.0722568E-16
   99.58000       -2.8703056E-16
   99.77000       -2.5976433E-16
   99.96000       -2.2699670E-16
   100.1500       -1.9038573E-16
   100.3400       -1.5156808E-16
   100.5300       -1.1205440E-16
   100.7200       -7.3137953E-17
   100.9100       -3.5823978E-17
   101.1000       -7.8518739E-19
   101.2900        3.1652629E-17
   101.4800        6.1493560E-17
   101.6700        8.9024347E-17
   101.8600        1.1474086E-16
   102.0500        1.3925437E-16
   102.2400        1.6318616E-16
   102.4300        1.8705936E-16
   102.6200        2.1119856E-16
   102.8100        2.3564631E-16
   103.0000        2.6010516E-16
   103.1900        2.8391131E-16
   103.3800        3.0604388E-16
   103.5700        3.2517036E-16
   103.7600        3.3972588E-16
   103.9500        3.4802122E-16
   104.1400        3.4837123E-16
   104.3300        3.3923429E-16
   104.5200        3.1935119E-16
   104.7100        2.8787254E-16
   104.9000        2.4446403E-16
   105.0900        1.8938020E-16
   105.2800        1.2350084E-16
   105.4700        4.8325794E-17
   105.6600       -3.4071990E-17
   105.8500       -1.2113213E-16
   106.0400       -2.0992538E-16
   106.2300       -2.9729634E-16
   106.4200       -3.8002041E-16
   106.6100       -4.5496384E-16
   106.8000       -5.1923586E-16
   106.9900       -5.7032327E-16
   107.1800       -6.0619978E-16
   107.3700       -6.2540381E-16
   107.5600       -6.2708316E-16
   107.7500       -6.1100605E-16
   107.9400       -5.7754174E-16
   108.1300       -5.2761635E-16
   108.3200       -4.6264993E-16
   108.5100       -3.8448310E-16
   108.7000       -2.9530012E-16
   108.8900       -1.9755447E-16
   109.0800       -9.3901543E-17
   109.2700        1.2859387E-17
   109.4600        1.1983502E-16
   109.6500        2.2408225E-16
   109.8400        3.2265115E-16
   110.0300        4.1263276E-16
   110.2200        4.9121675E-16
   110.4100        5.5576447E-16
   110.6000        6.0390035E-16
   110.7900        6.3362067E-16
   110.9800        6.4341671E-16
   111.1700        6.3240634E-16
   111.3600        6.0046208E-16
   111.5500        5.4832403E-16
   111.7400        4.7768206E-16
   111.9300        3.9121339E-16
   112.1200        2.9256229E-16
   112.3100        1.8625173E-16
   112.5000        7.7522361E-17
   112.6900       -2.7900246E-17
   112.8800       -1.2410330E-16
   113.0700       -2.0533390E-16
   113.2600       -2.6637598E-16
   113.4500       -3.0293083E-16
   113.6400       -3.1197388E-16
   113.8300       -2.9205500E-16
   114.0200       -2.4351782E-16
   114.2100       -1.6861146E-16
   114.4000       -7.1477702E-17
   114.5900        4.1995010E-17
   114.7800        1.6444883E-16
   114.9700        2.8745447E-16
   115.1600        4.0200689E-16
   115.3500        4.9908738E-16
   115.5400        5.7025508E-16
   115.7300        6.0822429E-16
   115.9200        6.0738562E-16
   116.1100        5.6423062E-16
   116.3000        4.7764543E-16
   116.4900        3.4904888E-16
   116.6800        1.8236085E-16
   116.8700       -1.6198862E-17
   117.0600       -2.3846836E-16
   117.2500       -4.7483206E-16
   117.4400       -7.1480454E-16
   117.6300       -9.4766406E-16
   117.8200       -1.1630886E-15
   118.0100       -1.3517445E-15
   118.2000       -1.5057838E-15
   118.3900       -1.6192134E-15
   118.5800       -1.6881095E-15
   118.7700       -1.7106660E-15
   118.9600       -1.6870792E-15
   119.1500       -1.6192837E-15
   119.3400       -1.5105718E-15
   119.5300       -1.3651358E-15
   119.7200       -1.1875775E-15
   119.9100       -9.8243667E-16
   120.1000       -7.5378478E-16
   120.2900       -5.0492370E-16
   120.4800       -2.3822119E-16
   120.6700        4.4899953E-17
   120.8600        3.4381684E-16
   121.0500        6.5841623E-16
   121.2400        9.8868873E-16
   121.4300        1.3342405E-15
   121.6200        1.6937765E-15
   121.8100        2.0645988E-15
   122.0000        2.4421779E-15
   122.1900        2.8198413E-15
   122.3800        3.1886138E-15
   122.5700        3.5372445E-15
   122.7600        3.8524227E-15
   122.9500        4.1191864E-15
   123.1400        4.3215020E-15
   123.3300        4.4429872E-15
   123.5200        4.4677303E-15
   123.7100        4.3811615E-15
   123.9000        4.1709228E-15
   124.0900        3.8276851E-15
   124.2800        3.3458604E-15
   124.4700        2.7241812E-15
   124.6600        1.9661062E-15
   124.8500        1.0800421E-15
   125.0400        7.9372837E-17
   125.2300       -1.0176992E-15
   125.4200       -2.1884845E-15
   125.6100       -3.4062918E-15
   125.8000       -4.6410405E-15
   125.9900       -5.8599810E-15
   126.1800       -7.0284930E-15
   126.3700       -8.1109444E-15
   126.5600       -9.0715992E-15
   126.7500       -9.8755546E-15
   126.9400       -1.0489713E-14
   127.1300       -1.0883769E-14
   127.3200       -1.1031213E-14
   127.5100       -1.0910337E-14
   127.7000       -1.0505225E-14
   127.8900       -9.8067052E-15
   128.0800       -8.8132237E-15
   128.2700       -7.5316018E-15
   128.4600       -5.9776127E-15
   128.6500       -4.1763324E-15
   128.8400       -2.1621973E-15
   129.0300        2.1279926E-17
   129.2200        2.3221921E-15
   129.4100        4.6813300E-15
   129.6000        7.0337048E-15
   129.7900        9.3104710E-15
   129.9800        1.1441214E-14
   130.1700        1.3356503E-14
   130.3600        1.4990633E-14
   130.5500        1.6284393E-14
   130.7400        1.7187757E-14
   130.9300        1.7662301E-14
   131.1200        1.7683244E-14
   131.3100        1.7240952E-14
   131.5000        1.6341780E-14
   131.6900        1.5008211E-14
   131.8800        1.3278222E-14
   132.0700        1.1203902E-14
   132.2600        8.8493615E-15
   132.4500        6.2880558E-15
   132.6400        3.5996452E-15
   132.8300        8.6656738E-16
   133.0200       -1.8294825E-15
   133.2100       -4.4109707E-15
   133.4000       -6.8076491E-15
   133.5900       -8.9592064E-15
   133.7800       -1.0817315E-14
   133.9700       -1.2346970E-14
   134.1600       -1.3527061E-14
   134.3500       -1.4350197E-14
   134.5400       -1.4821808E-14
   134.7300       -1.4958648E-14
   134.9200       -1.4786818E-14
   135.1100       -1.4339472E-14
   135.3000       -1.3654375E-14
   135.4900       -1.2771509E-14
   135.6800       -1.1730842E-14
   135.8700       -1.0570447E-14
   136.0600       -9.3250154E-15
   136.2500       -8.0248689E-15
   136.4400       -6.6954549E-15
   136.6300       -5.3573229E-15
   136.8200       -4.0265016E-15
   137.0100       -2.7151971E-15
   137.2000       -1.4326950E-15
   137.3900       -1.8635338E-16
   137.5800        1.0174304E-15
   137.7700        2.1723750E-15
   137.9600        3.2716679E-15
   138.1500        4.3075708E-15
   138.3400        5.2712800E-15
   138.5300        6.1530383E-15
   138.7200        6.9424540E-15
   138.9100        7.6289556E-15
   139.1000        8.2023308E-15
   139.2900        8.6532462E-15
   139.4800        8.9737101E-15
   139.6700        9.1573842E-15
   139.8600        9.1997595E-15
   140.0500        9.0981486E-15
   140.2400        8.8515468E-15
   140.4300        8.4603895E-15
   140.6200        7.9262811E-15
   140.8100        7.2517599E-15
   141.0000        6.4401897E-15
   141.1900        5.4958322E-15
   141.3800        4.4241484E-15
   141.5700        3.2323449E-15
   141.7600        1.9301537E-15
   141.9500        5.3078097E-16
   142.1400       -9.4805423E-16
   142.3300       -2.4831050E-15
   142.5200       -4.0447632E-15