  -30.00000        1.0384919E-17
  -29.81000        1.0384919E-17
  -29.62000        1.0384919E-17
  -29.43000        1.0384919E-17
  -29.24000        1.0384921E-17
  -29.05000        1.0384921E-17
  -28.86000        1.0384921E-17
  -28.67000        1.0384920E-17
  -28.48000        1.0384919E-17
  -28.29000        1.0384918E-17
  -28.10000        1.0384918E-17
  -27.91000        1.0384918E-17
  -27.72000        1.0384918E-17
  -27.53000        1.0384919E-17
  -27.34000        1.0384921E-17
  -27.15000        1.0384923E-17
  -26.96000        1.0384922E-17
  -26.77000        1.0384921E-17
  -26.58000        1.0384918E-17
  -26.39000        1.0384917E-17
  -26.20000        1.0384916E-17
  -26.01000        1.0384917E-17
  -25.82000        1.0384918E-17
  -25.63000        1.0384920E-17
  -25.44000        1.0384922E-17
  -25.25000        1.0384923E-17
  -25.06000        1.0384922E-17
  -24.87000        1.0384920E-17
  -24.68000        1.0384918E-17
  -24.49000        1.0384918E-17
  -24.30000        1.0384918E-17
  -24.11000        1.0384918E-17
  -23.92000        1.0384920E-17
  -23.73000        1.0384922E-17
  -23.54000        1.0384923E-17
  -23.35000        1.0384922E-17
  -23.16000        1.0384919E-17
  -22.97000        1.0384917E-17
  -22.78000        1.0384914E-17
  -22.59000        1.0384913E-17
  -22.40000        1.0384916E-17
  -22.21000        1.0384919E-17
  -22.02000        1.0384922E-17
  -21.83000        1.0384923E-17
  -21.64000        1.0384922E-17
  -21.45000        1.0384919E-17
  -21.26000        1.0384917E-17
  -21.07000        1.0384916E-17
  -20.88000        1.0384917E-17
  -20.69000        1.0384919E-17
  -20.50000        1.0384923E-17
  -20.31000        1.0384925E-17
  -20.12000        1.0384925E-17
  -19.93000        1.0384923E-17
  -19.74000        1.0384919E-17
  -19.55000        1.0384916E-17
  -19.36000        1.0384915E-17
  -19.17000        1.0384914E-17
  -18.98000        1.0384917E-17
  -18.79000        1.0384919E-17
  -18.60000        1.0384922E-17
  -18.41000        1.0384922E-17
  -18.22000        1.0384921E-17
  -18.03000        1.0384918E-17
  -17.84000        1.0384915E-17
  -17.65000        1.0384913E-17
  -17.46000        1.0384913E-17
  -17.27000        1.0384917E-17
  -17.08000        1.0384921E-17
  -16.89000        1.0384924E-17
  -16.70000        1.0384925E-17
  -16.51000        1.0384923E-17
  -16.32000        1.0384919E-17
  -16.13000        1.0384916E-17
  -15.94000        1.0384915E-17
  -15.75000        1.0384916E-17
  -15.56000        1.0384920E-17
  -15.37000        1.0384923E-17
  -15.18000        1.0384928E-17
  -14.99000        1.0384928E-17
  -14.80000        1.0384926E-17
  -14.61000        1.0384923E-17
  -14.42000        1.0384918E-17
  -14.23000        1.0384916E-17
  -14.04000        1.0384916E-17
  -13.85000        1.0384918E-17
  -13.66000        1.0384922E-17
  -13.47000        1.0384923E-17
  -13.28000        1.0384923E-17
  -13.09000        1.0384921E-17
  -12.90000        1.0384917E-17
  -12.71000        1.0384913E-17
  -12.52000        1.0384910E-17
  -12.33000        1.0384911E-17
  -12.14000        1.0384915E-17
  -11.95000        1.0384921E-17
  -11.76000        1.0384924E-17
  -11.57000        1.0384925E-17
  -11.38000        1.0384923E-17
  -11.19000        1.0384918E-17
  -11.00000        1.0384914E-17
  -10.81000        1.0384913E-17
  -10.62000        1.0384914E-17
  -10.43000        1.0384918E-17
  -10.24000        1.0384922E-17
  -10.05000        1.0384924E-17
  -9.860000        1.0384924E-17
  -9.670000        1.0384923E-17
  -9.480000        1.0384921E-17
  -9.290000        1.0384919E-17
  -9.100000        1.0384918E-17
  -8.910000        1.0384918E-17
  -8.720000        1.0384919E-17
  -8.530000        1.0384920E-17
  -8.340000        1.0384920E-17
  -8.150000        1.0384919E-17
  -7.960000        1.0384917E-17
  -7.770000        1.0384913E-17
  -7.580000        1.0384910E-17
  -7.390000        1.0384909E-17
  -7.200000        1.0384911E-17
  -7.010000        1.0384913E-17
  -6.820000        1.0384918E-17
  -6.630000        1.0384919E-17
  -6.440000        1.0384920E-17
  -6.250000        1.0384918E-17
  -6.060000        1.0384918E-17
  -5.870000        1.0384918E-17
  -5.680000        1.0384921E-17
  -5.490000        1.0384924E-17
  -5.300000        1.0384927E-17
  -5.110000        1.0384928E-17
  -4.920000        1.0384926E-17
  -4.730000        1.0384923E-17
  -4.540000        1.0384919E-17
  -4.350000        1.0384918E-17
  -4.160000        1.0384918E-17
  -3.970000        1.0384918E-17
  -3.780000        1.0384919E-17
  -3.590000        1.0384918E-17
  -3.400000        1.0384918E-17
  -3.210000        1.0384915E-17
  -3.020000        1.0384913E-17
  -2.830000        1.0384913E-17
  -2.640000        1.0384913E-17
  -2.450000        1.0384915E-17
  -2.260000        1.0384918E-17
  -2.070000        1.0384921E-17
  -1.880000        1.0384924E-17
  -1.690000        1.0384924E-17
  -1.500000        1.0384923E-17
  -1.310000        1.0384918E-17
  -1.120000        1.0384915E-17
 -0.9300000        1.0384913E-17
 -0.7400000        1.0384913E-17
 -0.5500000        1.0384916E-17
 -0.3600000        1.0384921E-17
 -0.1700000        1.0384925E-17
  2.0000000E-02    1.0384926E-17
  0.2100000        1.0384923E-17
  0.4000000        1.0384920E-17
  0.5900000        1.0384918E-17
  0.7800000        1.0384918E-17
  0.9700000        1.0384919E-17
   1.160000        1.0384923E-17
   1.350000        1.0384925E-17
   1.540000        1.0384925E-17
   1.730000        1.0384924E-17
   1.920000        1.0384922E-17
   2.110000        1.0384920E-17
   2.300000        1.0384919E-17
   2.490000        1.0384919E-17
   2.680000        1.0384920E-17
   2.870000        1.0384921E-17
   3.060000        1.0384923E-17
   3.250000        1.0384924E-17
   3.440000        1.0384925E-17
   3.630000        1.0384925E-17
   3.820000        1.0384922E-17
   4.010000        1.0384918E-17
   4.200000        1.0384916E-17
   4.390000        1.0384914E-17
   4.580000        1.0384916E-17
   4.770000        1.0384919E-17
   4.960000        1.0384923E-17
   5.150000        1.0384924E-17
   5.340000        1.0384923E-17
   5.530000        1.0384921E-17
   5.720000        1.0384919E-17
   5.910000        1.0384919E-17
   6.100000        1.0384922E-17
   6.290000        1.0384925E-17
   6.480000        1.0384927E-17
   6.670000        1.0384925E-17
   6.860000        1.0384920E-17
   7.050000        1.0384914E-17
   7.240000        1.0384911E-17
   7.430000        1.0384909E-17
   7.620000        1.0384910E-17
   7.810000        1.0384913E-17
   8.000000        1.0384916E-17
   8.190000        1.0384918E-17
   8.380000        1.0384920E-17
   8.570000        1.0384921E-17
   8.760000        1.0384921E-17
   8.950000        1.0384922E-17
   9.140000        1.0384923E-17
   9.330000        1.0384923E-17
   9.520000        1.0384924E-17
   9.710000        1.0384926E-17
   9.900000        1.0384926E-17
   10.09000        1.0384925E-17
   10.28000        1.0384923E-17
   10.47000        1.0384918E-17
   10.66000        1.0384915E-17
   10.85000        1.0384913E-17
   11.04000        1.0384916E-17
   11.23000        1.0384920E-17
   11.42000        1.0384926E-17
   11.61000        1.0384929E-17
   11.80000        1.0384929E-17
   11.99000        1.0384926E-17
   12.18000        1.0384922E-17
   12.37000        1.0384918E-17
   12.56000        1.0384915E-17
   12.75000        1.0384915E-17
   12.94000        1.0384914E-17
   13.13000        1.0384913E-17
   13.32000        1.0384909E-17
   13.51000        1.0384907E-17
   13.70000        1.0384904E-17
   13.89000        1.0384905E-17
   14.08000        1.0384909E-17
   14.27000        1.0384916E-17
   14.46000        1.0384921E-17
   14.65000        1.0384925E-17
   14.84000        1.0384928E-17
   15.03000        1.0384928E-17
   15.22000        1.0384926E-17
   15.41000        1.0384923E-17
   15.60000        1.0384920E-17
   15.79000        1.0384918E-17
   15.98000        1.0384917E-17
   16.17000        1.0384918E-17
   16.36000        1.0384920E-17
   16.55000        1.0384923E-17
   16.74000        1.0384923E-17
   16.93000        1.0384920E-17
   17.12000        1.0384917E-17
   17.31000        1.0384913E-17
   17.50000        1.0384913E-17
   17.69000        1.0384917E-17
   17.88000        1.0384923E-17
   18.07000        1.0384930E-17
   18.26000        1.0384936E-17
   18.45000        1.0384937E-17
   18.64000        1.0384935E-17
   18.83000        1.0384930E-17
   19.02000        1.0384924E-17
   19.21000        1.0384920E-17
   19.40000        1.0384918E-17
   19.59000        1.0384917E-17
   19.78000        1.0384918E-17
   19.97000        1.0384918E-17
   20.16000        1.0384920E-17
   20.35000        1.0384921E-17
   20.54000        1.0384921E-17
   20.73000        1.0384919E-17
   20.92000        1.0384917E-17
   21.11000        1.0384914E-17
   21.30000        1.0384915E-17
   21.49000        1.0384919E-17
   21.68000        1.0384924E-17
   21.87000        1.0384930E-17
   22.06000        1.0384932E-17
   22.25000        1.0384928E-17
   22.44000        1.0384923E-17
   22.63000        1.0384917E-17
   22.82000        1.0384913E-17
   23.01000        1.0384913E-17
   23.20000        1.0384918E-17
   23.39000        1.0384922E-17
   23.58000        1.0384923E-17
   23.77000        1.0384920E-17
   23.96000        1.0384914E-17
   24.15000        1.0384907E-17
   24.34000        1.0384900E-17
   24.53000        1.0384897E-17
   24.72000        1.0384898E-17
   24.91000        1.0384903E-17
   25.10000        1.0384909E-17
   25.29000        1.0384917E-17
   25.48000        1.0384921E-17
   25.67000        1.0384921E-17
   25.86000        1.0384916E-17
   26.05000        1.0384908E-17
   26.24000        1.0384903E-17
   26.43000        1.0384903E-17
   26.62000        1.0384910E-17
   26.81000        1.0384923E-17
   27.00000        1.0384933E-17
   27.19000        1.0384939E-17
   27.38000        1.0384936E-17
   27.57000        1.0384927E-17
   27.76000        1.0384917E-17
   27.95000        1.0384910E-17
   28.14000        1.0384911E-17
   28.33000        1.0384919E-17
   28.52000        1.0384930E-17
   28.71000        1.0384939E-17
   28.90000        1.0384940E-17
   29.09000        1.0384933E-17
   29.28000        1.0384923E-17
   29.47000        1.0384912E-17
   29.66000        1.0384906E-17
   29.85000        1.0384906E-17
   30.04000        1.0384913E-17
   30.23000        1.0384922E-17
   30.42000        1.0384930E-17
   30.61000        1.0384933E-17
   30.80000        1.0384929E-17
   30.99000        1.0384918E-17
   31.18000        1.0384906E-17
   31.37000        1.0384898E-17
   31.56000        1.0384897E-17
   31.75000        1.0384904E-17
   31.94000        1.0384918E-17
   32.13000        1.0384930E-17
   32.32000        1.0384934E-17
   32.51000        1.0384930E-17
   32.70000        1.0384919E-17
   32.89000        1.0384909E-17
   33.08000        1.0384907E-17
   33.27000        1.0384914E-17
   33.46000        1.0384928E-17
   33.65000        1.0384942E-17
   33.84000        1.0384949E-17
   34.03000        1.0384946E-17
   34.22000        1.0384934E-17
   34.41000        1.0384919E-17
   34.60000        1.0384906E-17
   34.79000        1.0384900E-17
   34.98000        1.0384903E-17
   35.17000        1.0384912E-17
   35.36000        1.0384923E-17
   35.55000        1.0384930E-17
   35.74000        1.0384931E-17
   35.93000        1.0384926E-17
   36.12000        1.0384918E-17
   36.31000        1.0384911E-17
   36.50000        1.0384910E-17
   36.69000        1.0384916E-17
   36.88000        1.0384925E-17
   37.07000        1.0384935E-17
   37.26000        1.0384940E-17
   37.45000        1.0384937E-17
   37.64000        1.0384927E-17
   37.83000        1.0384912E-17
   38.02000        1.0384899E-17
   38.21000        1.0384894E-17
   38.40000        1.0384894E-17
   38.59000        1.0384900E-17
   38.78000        1.0384905E-17
   38.97000        1.0384907E-17
   39.16000        1.0384903E-17
   39.35000        1.0384895E-17
   39.54000        1.0384890E-17
   39.73000        1.0384891E-17
   39.92000        1.0384899E-17
   40.11000        1.0384913E-17
   40.30000        1.0384928E-17
   40.49000        1.0384937E-17
   40.68000        1.0384938E-17
   40.87000        1.0384933E-17
   41.06000        1.0384927E-17
   41.25000        1.0384922E-17
   41.44000        1.0384923E-17
   41.63000        1.0384929E-17
   41.82000        1.0384937E-17
   42.01000        1.0384943E-17
   42.20000        1.0384944E-17
   42.39000        1.0384940E-17
   42.58000        1.0384935E-17
   42.77000        1.0384930E-17
   42.96000        1.0384929E-17
   43.15000        1.0384934E-17
   43.34000        1.0384944E-17
   43.53000        1.0384954E-17
   43.72000        1.0384961E-17
   43.91000        1.0384961E-17
   44.10000        1.0384950E-17
   44.29000        1.0384931E-17
   44.48000        1.0384908E-17
   44.67000        1.0384884E-17
   44.86000        1.0384865E-17
   45.05000        1.0384849E-17
   45.24000        1.0384832E-17
   45.43000        1.0384809E-17
   45.62000        1.0384780E-17
   45.81000        1.0384746E-17
   46.00000        1.0384717E-17
   46.19000        1.0384696E-17
   46.38000        1.0384691E-17
   46.57000        1.0384703E-17
   46.76000        1.0384727E-17
   46.95000        1.0384763E-17
   47.14000        1.0384806E-17
   47.33000        1.0384858E-17
   47.52000        1.0384923E-17
   47.71000        1.0385008E-17
   47.90000        1.0385115E-17
   48.09000        1.0385246E-17
   48.28000        1.0385393E-17
   48.47000        1.0385550E-17
   48.66000        1.0385703E-17
   48.85000        1.0385845E-17
   49.04000        1.0385966E-17
   49.23000        1.0386061E-17
   49.42000        1.0386125E-17
   49.61000        1.0386155E-17
   49.80000        1.0386139E-17
   49.99000        1.0386068E-17
   50.18000        1.0385928E-17
   50.37000        1.0385704E-17
   50.56000        1.0385390E-17
   50.75000        1.0384983E-17
   50.94000        1.0384487E-17
   51.13000        1.0383913E-17
   51.32000        1.0383274E-17
   51.51000        1.0382584E-17
   51.70000        1.0381858E-17
   51.89000        1.0381115E-17
   52.08000        1.0380383E-17
   52.27000        1.0379699E-17
   52.46000        1.0379107E-17
   52.65000        1.0378665E-17
   52.84000        1.0378427E-17
   53.03000        1.0378447E-17
   53.22000        1.0378772E-17
   53.41000        1.0379447E-17
   53.60000        1.0380504E-17
   53.79000        1.0381970E-17
   53.98000        1.0383865E-17
   54.17000        1.0386190E-17
   54.36000        1.0388928E-17
   54.55000        1.0392032E-17
   54.74000        1.0395424E-17
   54.93000        1.0398993E-17
   55.12000        1.0402593E-17
   55.31000        1.0406051E-17
   55.50000        1.0409173E-17
   55.69000        1.0411746E-17
   55.88000        1.0413547E-17
   56.07000        1.0414354E-17
   56.26000        1.0413948E-17
   56.45000        1.0412128E-17
   56.64000        1.0408723E-17
   56.83000        1.0403609E-17
   57.02000        1.0396721E-17
   57.21000        1.0388074E-17
   57.40000        1.0377772E-17
   57.59000        1.0366015E-17
   57.78000        1.0353101E-17
   57.97000        1.0339427E-17
   58.16000        1.0325483E-17
   58.35000        1.0311843E-17
   58.54000        1.0299160E-17
   58.73000        1.0288155E-17
   58.92000        1.0279589E-17
   59.11000        1.0274245E-17
   59.30000        1.0272889E-17
   59.49000        1.0276229E-17
   59.68000        1.0284871E-17
   59.87000        1.0299286E-17
   60.06000        1.0319765E-17
   60.25000        1.0346382E-17
   60.44000        1.0378961E-17
   60.63000        1.0417043E-17
   60.82000        1.0459853E-17
   61.01000        1.0506283E-17
   61.20000        1.0554884E-17
   61.39000        1.0603872E-17
   61.58000        1.0651155E-17
   61.77000        1.0694381E-17
   61.96000        1.0731005E-17
   62.15000        1.0758376E-17
   62.34000        1.0773845E-17
   62.53000        1.0774889E-17
   62.72000        1.0759248E-17
   62.91000        1.0725072E-17
   63.10000        1.0671071E-17
   63.29000        1.0596668E-17
   63.48000        1.0502133E-17
   63.67000        1.0388710E-17
   63.86000        1.0258691E-17
   64.05000        1.0115461E-17
   64.24000        9.9634790E-18
   64.43000        9.8082048E-18
   64.62000        9.6559589E-18
   64.81000        9.5137252E-18
   65.00000        9.3888962E-18
   65.19000        9.2889719E-18
   65.38000        9.2212209E-18
   65.57000        9.1923134E-18
   65.76000        9.2079562E-18
   65.95000        9.2725375E-18
   66.14000        9.3888035E-18
   66.33000        9.5576013E-18
   66.52000        9.7776942E-18
   66.71000        1.0045665E-17
   66.90000        1.0355915E-17
   67.09000        1.0700756E-17
   67.28000        1.1070602E-17
   67.47000        1.1454237E-17
   67.66000        1.1839151E-17
   67.85000        1.2211928E-17
   68.04000        1.2558676E-17
   68.23000        1.2865469E-17
   68.42000        1.3118783E-17
   68.61000        1.3305928E-17
   68.80000        1.3415446E-17
   68.99000        1.3437472E-17
   69.18000        1.3364061E-17
   69.37000        1.3189460E-17
   69.56000        1.2910360E-17
   69.75000        1.2526099E-17
   69.94000        1.2038838E-17
   70.13000        1.1453704E-17
   70.32000        1.0778912E-17
   70.51000        1.0025818E-17
   70.70000        9.2089248E-18
   70.89000        8.3458181E-18
   71.08000        7.4569968E-18
   71.27000        6.5656100E-18
   71.46000        5.6970650E-18
   71.65000        4.8785284E-18
   71.84000        4.1382990E-18
   72.03000        3.5050716E-18
   72.22000        3.0071037E-18
   72.41000        2.6713190E-18
   72.60000        2.5223678E-18
   72.79000        2.5816931E-18
   72.98000        2.8666418E-18
   73.17000        3.3896457E-18
   73.36000        4.1575322E-18
   73.55000        5.1709670E-18
   73.74000        6.4240617E-18
   73.93000        7.9041475E-18
   74.12000        9.5917175E-18
   74.31000        1.1460530E-17
   74.50000        1.3477860E-17
   74.69000        1.5604868E-17
   74.88000        1.7797092E-17
   75.07000        2.0005042E-17
   75.26000        2.2174863E-17
   75.45000        2.4249111E-17
   75.64000        2.6167607E-17
   75.83000        2.7868387E-17
   76.02000        2.9288781E-17
   76.21000        3.0366608E-17
   76.40000        3.1041531E-17
   76.59000        3.1256594E-17
   76.78000        3.0959895E-17
   76.97000        3.0106456E-17
   77.16000        2.8660207E-17
   77.35000        2.6596074E-17
   77.54000        2.3902082E-17
   77.73000        2.0581422E-17
   77.92000        1.6654368E-17
   78.11000        1.2159926E-17
   78.30000        7.1571455E-18
   78.49000        1.7258962E-18
   78.68000       -4.0329364E-18
   78.87000       -9.9979948E-18
   79.06000       -1.6028773E-17
   79.25000       -2.1967806E-17
   79.44000       -2.7643706E-17
   79.63000       -3.2875043E-17
   79.82000       -3.7474984E-17
   80.01000       -4.1256596E-17
   80.20000       -4.4038643E-17
   80.39000       -4.5651734E-17
   80.58000       -4.5944539E-17
   80.77000       -4.4789941E-17
   80.96000       -4.2090814E-17
   81.15000       -3.7785223E-17
   81.34000       -3.1850844E-17
   81.53000       -2.4308386E-17
   81.72000       -1.5223859E-17
   81.91000       -4.7095479E-18
   82.10000        7.0762853E-18
   82.29000        1.9931124E-17
   82.48000        3.3611190E-17
   82.67000        4.7835703E-17
   82.86000        6.2292265E-17
   83.05000        7.6643174E-17
   83.24000        9.0532509E-17
   83.43000        1.0359373E-16
   83.62000        1.1545757E-16
   83.81000        1.2576000E-16
   84.00000        1.3414998E-16
   84.19000        1.4029695E-16
   84.38000        1.4389782E-16
   84.57000        1.4468333E-16
   84.76000        1.4242396E-16
   84.95000        1.3693534E-16
   85.14000        1.2808323E-16
   85.33000        1.1578831E-16
   85.52000        1.0003112E-16
   85.71000        8.0857037E-17
   85.90000        5.8381759E-17
   86.09000        3.2797139E-17
   86.28000        4.3773645E-18
   86.47000       -2.6514649E-17
   86.66000       -5.9421181E-17
   86.85000       -9.3784520E-17
   87.04000       -1.2894336E-16
   87.23000       -1.6413184E-16
   87.42000       -1.9848213E-16
   87.61000       -2.3103173E-16
   87.80000       -2.6073617E-16
   87.99000       -2.8648838E-16
   88.18000       -3.0714450E-16
   88.37000       -3.2155726E-16
   88.56000       -3.2861541E-16
   88.75000       -3.2728932E-16
   88.94000       -3.1668100E-16
   89.13000       -2.9607645E-16
   89.32000       -2.6499825E-16
   89.51000       -2.2325562E-16
   89.70000       -1.7098897E-16
   89.89000       -1.0870583E-16
   90.08000       -3.7305958E-17
   90.27000        4.1907835E-17
   90.46000        1.2723417E-16
   90.65000        2.1659495E-16
   90.84000        3.0757487E-16
   91.03000        3.9747828E-16
   91.22000        4.8340266E-16
   91.41000        5.6232617E-16
   91.60000        6.3120736E-16
   91.79000        6.8709285E-16
   91.98000        7.2723014E-16
   92.17000        7.4918005E-16
   92.36000        7.5092584E-16
   92.55000        7.3097398E-16
   92.74000        6.8844217E-16
   92.93000        6.2313154E-16
   93.12000        5.3557893E-16
   93.31000        4.2708640E-16
   93.50000        2.9972687E-16
   93.69000        1.5632263E-16
   93.88000        3.9737612E-19
   94.07000       -1.6389906E-16
   94.26000       -3.3189247E-16
   94.45000       -4.9851023E-16
   94.64000       -6.5843005E-16
   94.83000       -8.0624720E-16
   95.02000       -9.3665581E-16
   95.21000       -1.0446401E-15
   95.40000       -1.1256675E-15
   95.59000       -1.1758792E-15
   95.78000       -1.1922680E-15
   95.97000       -1.1728392E-15
   96.16000       -1.1167422E-15
   96.35000       -1.0243694E-15
   96.54000       -8.9741182E-16
   96.73000       -7.3886912E-16
   96.92000       -5.5300473E-16
   97.11000       -3.4524838E-16
   97.30000       -1.2204268E-16
   97.49000        1.0936271E-16
   97.68000        3.4116425E-16
   97.87000        5.6529687E-16
   98.06000        7.7375486E-16
   98.25000        9.5892780E-16
   98.44000        1.1139372E-15
   98.63000        1.2329555E-15
   98.82000        1.3114934E-15
   99.01000        1.3466368E-15
   99.20000        1.3372191E-15
   99.39000        1.2839180E-15
   99.58000        1.1892668E-15
   99.77000        1.0575740E-15
   99.96000        8.9475637E-16
   100.1500        7.0808413E-16
   100.3400        5.0585390E-16
   100.5300        2.9700085E-16
   100.7200        9.0670655E-17
   100.9100       -1.0422797E-16
   101.1000       -2.7946608E-16
   101.2900       -4.2790876E-16
   101.4800       -5.4387832E-16
   101.6700       -6.2344531E-16
   101.8600       -6.6463097E-16
   102.0500       -6.6750961E-16
   102.2400       -6.3420343E-16
   102.4300       -5.6877034E-16
   102.6200       -4.7698972E-16
   102.8100       -3.6605760E-16
   103.0000       -2.4420661E-16
   103.1900       -1.2027194E-16
   103.3800       -3.2246646E-18
   103.5700        9.8302879E-17
   103.7600        1.7647602E-16
   103.9500        2.2467832E-16
   104.1400        2.3787361E-16
   104.3300        2.1289289E-16
   104.5200        1.4863337E-16
   104.7100        4.6161443E-17
   104.9000       -9.1283933E-17
   105.0900       -2.5838647E-16
   105.2800       -4.4794205E-16
   105.4700       -6.5113403E-16
   105.6600       -8.5788302E-16
   105.8500       -1.0572581E-15
   106.0400       -1.2379344E-15
   106.2300       -1.3886817E-15
   106.4200       -1.4988650E-15
   106.6100       -1.5589425E-15
   106.8000       -1.5609417E-15
   106.9900       -1.4988958E-15
   107.1800       -1.3692231E-15
   107.3700       -1.1710315E-15
   107.5600       -9.0633171E-16
   107.7500       -5.8014430E-16
   107.9400       -2.0048600E-16
   108.1300        2.2177392E-16
   108.3200        6.7319283E-16
   108.5100        1.1381709E-15
   108.7000        1.5994968E-15
   108.8900        2.0390124E-15
   109.0800        2.4383711E-15
   109.2700        2.7798637E-15
   109.4600        3.0472730E-15
   109.6500        3.2267161E-15
   109.8400        3.3074225E-15
   110.0300        3.2824058E-15
   110.2200        3.1489769E-15
   110.4100        2.9090599E-15
   110.6000        2.5692779E-15
   110.7900        2.1407845E-15
   110.9800        1.6388408E-15
   111.1700        1.0821438E-15
   111.3600        4.9193567E-16
   111.5500       -1.0905988E-16
   111.7400       -6.9781788E-16
   111.9300       -1.2522352E-15
   112.1200       -1.7523215E-15
   112.3100       -2.1812776E-15
   112.5000       -2.5263867E-15
   112.6900       -2.7796559E-15
   112.8800       -2.9381555E-15
   113.0700       -3.0040303E-15
   113.2600       -2.9841763E-15
   113.4500       -2.8895991E-15
   113.6400       -2.7344964E-15
   113.8300       -2.5351279E-15
   114.0200       -2.3085517E-15
   114.2100       -2.0713181E-15
   114.4000       -1.8382182E-15
   114.5900       -1.6211773E-15
   114.7800       -1.4283810E-15
   114.9700       -1.2636960E-15
   115.1600       -1.1264358E-15
   115.3500       -1.0114883E-15
   115.5400       -9.0979894E-16
   115.7300       -8.0917709E-16
   115.9200       -6.9536625E-16
   116.1100       -5.5330389E-16
   116.3000       -3.6847725E-16
   116.4900       -1.2827947E-16
   116.6800        1.7673225E-16
   116.8700        5.5176483E-16
   117.0600        9.9698012E-16
   117.2500        1.5070018E-15
   117.4400        2.0707743E-15
   117.6300        2.6717778E-15
   117.8200        3.2885889E-15
   118.0100        3.8957447E-15
   118.2000        4.4648610E-15
   118.3900        4.9659339E-15
   118.5800        5.3687557E-15
   118.7700        5.6443658E-15
   118.9600        5.7664737E-15
   119.1500        5.7127875E-15
   119.3400        5.4661958E-15
   119.5300        5.0157717E-15
   119.7200        4.3575661E-15
   119.9100        3.4951764E-15
   120.1000        2.4400851E-15
   120.2900        1.2117629E-15
   120.4800       -1.6246171E-16
   120.6700       -1.6477706E-15
   120.8600       -3.2024643E-15
   121.0500       -4.7788155E-15
   121.2400       -6.3241784E-15
   121.4300       -7.7823541E-15
   121.6200       -9.0952196E-15
   121.8100       -1.0204602E-14
   122.0000       -1.1054381E-14
   122.1900       -1.1592769E-14
   122.3800       -1.1774708E-14
   122.5700       -1.1564298E-14
   122.7600       -1.0937133E-14
   122.9500       -9.8824393E-15
   123.1400       -8.4048640E-15
   123.3300       -6.5257697E-15
   123.5200       -4.2839123E-15
   123.7100       -1.7353823E-15
   123.9000        1.0472777E-15
   124.0900        3.9768218E-15
   124.2800        6.9539118E-15
   124.4700        9.8705291E-15
   124.6600        1.2614084E-14
   124.8500        1.5072042E-14
   125.0400        1.7136864E-14
   125.2300        1.8711024E-14
   125.4200        1.9711817E-14
   125.6100        2.0075692E-14
   125.8000        1.9761872E-14
   125.9900        1.8754995E-14
   126.1800        1.7066657E-14
   126.3700        1.4735666E-14
   126.5600        1.1827030E-14
   126.7500        8.4296490E-15
   126.9400        4.6528693E-15
   127.1300        6.2203130E-16
   127.3200       -3.5267356E-15
   127.5100       -7.6521973E-15
   127.7000       -1.1613884E-14
   127.8900       -1.5277837E-14
   128.0800       -1.8521925E-14
   128.2700       -2.1240510E-14
   128.4600       -2.3348199E-14
   128.6500       -2.4782568E-14
   128.8400       -2.5505765E-14
   129.0300       -2.5504950E-14
   129.2200       -2.4791680E-14
   129.4100       -2.3400285E-14
   129.6000       -2.1385436E-14
   129.7900       -1.8819076E-14
   129.9800       -1.5786937E-14
   130.1700       -1.2384811E-14
   130.3600       -8.7148044E-15
   130.5500       -4.8817325E-15
   130.7400       -9.8976890E-16
   130.9300        2.8605376E-15
   131.1200        6.5748273E-15
   131.3100        1.0067058E-14
   131.5000        1.3261205E-14
   131.6900        1.6092554E-14
   131.8800        1.8508642E-14
   132.0700        2.0469866E-14
   132.2600        2.1949819E-14
   132.4500        2.2935343E-14
   132.6400        2.3426336E-14
   132.8300        2.3435274E-14
   133.0200        2.2986423E-14
   133.2100        2.2114761E-14
   133.4000        2.0864529E-14
   133.5900        1.9287454E-14
   133.7800        1.7440632E-14
   133.9700        1.5384143E-14
   134.1600        1.3178450E-14
   134.3500        1.0881736E-14
   134.5400        8.5472731E-15
   134.7300        6.2210508E-15
   134.9200        3.9397874E-15
   135.1100        1.7295264E-15
   135.3000       -3.9504063E-16
   135.4900       -2.4304215E-15
   135.6800       -4.3832824E-15
   135.8700       -6.2685275E-15
   136.0600       -8.1065974E-15
   136.2500       -9.9201212E-15
   136.4400       -1.1730175E-14
   136.6300       -1.3552393E-14
   136.8200       -1.5393275E-14
   137.0100       -1.7246983E-14
   137.2000       -1.9092954E-14
   137.3900       -2.0894582E-14
   137.5800       -2.2599174E-14
   137.7700       -2.4139289E-14
   137.9600       -2.5435452E-14
   138.1500       -2.6400203E-14
   138.3400       -2.6943164E-14
   138.5300       -2.6976929E-14
   138.7200       -2.6423311E-14
   138.9100       -2.5219544E-14
   139.1000       -2.3323970E-14
   139.2900       -2.0720801E-14
   139.4800       -1.7423549E-14
   139.6700       -1.3476824E-14
   139.8600       -8.9563248E-15
   140.0500       -3.9669632E-15
   140.2400        1.3608266E-15
   140.4300        6.8763647E-15
   140.6200        1.2415280E-14
   140.8100        1.7806921E-14
   141.0000        2.2882139E-14
   141.1900        2.7480947E-14
   141.3800        3.1459556E-14
   141.5700        3.4696370E-14
   141.7600        3.7096577E-14
   141.9500        3.8595117E-14
   142.1400        3.9157920E-14
   142.3300        3.8781451E-14
   142.5200        3.7490739E-14