  -30.00000        1.0798881E-18
  -29.81000        1.0798881E-18
  -29.62000        1.0798881E-18
  -29.43000        1.0798881E-18
  -29.24000        1.0798882E-18
  -29.05000        1.0798883E-18
  -28.86000        1.0798883E-18
  -28.67000        1.0798883E-18
  -28.48000        1.0798882E-18
  -28.29000        1.0798881E-18
  -28.10000        1.0798880E-18
  -27.91000        1.0798879E-18
  -27.72000        1.0798879E-18
  -27.53000        1.0798880E-18
  -27.34000        1.0798881E-18
  -27.15000        1.0798882E-18
  -26.96000        1.0798884E-18
  -26.77000        1.0798884E-18
  -26.58000        1.0798891E-18
  -26.39000        1.0798891E-18
  -26.20000        1.0798887E-18
  -26.01000        1.0798881E-18
  -25.82000        1.0798877E-18
  -25.63000        1.0798873E-18
  -25.44000        1.0798868E-18
  -25.25000        1.0798866E-18
  -25.06000        1.0798874E-18
  -24.87000        1.0798886E-18
  -24.68000        1.0798894E-18
  -24.49000        1.0798898E-18
  -24.30000        1.0798891E-18
  -24.11000        1.0798881E-18
  -23.92000        1.0798875E-18
  -23.73000        1.0798873E-18
  -23.54000        1.0798883E-18
  -23.35000        1.0798894E-18
  -23.16000        1.0798903E-18
  -22.97000        1.0798911E-18
  -22.78000        1.0798899E-18
  -22.59000        1.0798884E-18
  -22.40000        1.0798870E-18
  -22.21000        1.0798858E-18
  -22.02000        1.0798852E-18
  -21.83000        1.0798857E-18
  -21.64000        1.0798862E-18
  -21.45000        1.0798874E-18
  -21.26000        1.0798881E-18
  -21.07000        1.0798883E-18
  -20.88000        1.0798880E-18
  -20.69000        1.0798877E-18
  -20.50000        1.0798880E-18
  -20.31000        1.0798889E-18
  -20.12000        1.0798899E-18
  -19.93000        1.0798910E-18
  -19.74000        1.0798916E-18
  -19.55000        1.0798920E-18
  -19.36000        1.0798915E-18
  -19.17000        1.0798903E-18
  -18.98000        1.0798883E-18
  -18.79000        1.0798866E-18
  -18.60000        1.0798854E-18
  -18.41000        1.0798858E-18
  -18.22000        1.0798871E-18
  -18.03000        1.0798883E-18
  -17.84000        1.0798887E-18
  -17.65000        1.0798879E-18
  -17.46000        1.0798866E-18
  -17.27000        1.0798849E-18
  -17.08000        1.0798837E-18
  -16.89000        1.0798836E-18
  -16.70000        1.0798846E-18
  -16.51000        1.0798863E-18
  -16.32000        1.0798879E-18
  -16.13000        1.0798898E-18
  -15.94000        1.0798909E-18
  -15.75000        1.0798907E-18
  -15.56000        1.0798891E-18
  -15.37000        1.0798878E-18
  -15.18000        1.0798866E-18
  -14.99000        1.0798857E-18
  -14.80000        1.0798864E-18
  -14.61000        1.0798882E-18
  -14.42000        1.0798900E-18
  -14.23000        1.0798907E-18
  -14.04000        1.0798906E-18
  -13.85000        1.0798885E-18
  -13.66000        1.0798864E-18
  -13.47000        1.0798844E-18
  -13.28000        1.0798839E-18
  -13.09000        1.0798852E-18
  -12.90000        1.0798873E-18
  -12.71000        1.0798896E-18
  -12.52000        1.0798912E-18
  -12.33000        1.0798914E-18
  -12.14000        1.0798902E-18
  -11.95000        1.0798886E-18
  -11.76000        1.0798869E-18
  -11.57000        1.0798863E-18
  -11.38000        1.0798873E-18
  -11.19000        1.0798893E-18
  -11.00000        1.0798915E-18
  -10.81000        1.0798929E-18
  -10.62000        1.0798924E-18
  -10.43000        1.0798907E-18
  -10.24000        1.0798874E-18
  -10.05000        1.0798847E-18
  -9.860000        1.0798835E-18
  -9.670000        1.0798833E-18
  -9.480000        1.0798857E-18
  -9.290000        1.0798889E-18
  -9.100000        1.0798918E-18
  -8.910000        1.0798929E-18
  -8.720000        1.0798913E-18
  -8.530000        1.0798888E-18
  -8.340000        1.0798865E-18
  -8.150000        1.0798851E-18
  -7.960000        1.0798863E-18
  -7.770000        1.0798881E-18
  -7.580000        1.0798903E-18
  -7.390000        1.0798911E-18
  -7.200000        1.0798902E-18
  -7.010000        1.0798878E-18
  -6.820000        1.0798848E-18
  -6.630000        1.0798824E-18
  -6.440000        1.0798819E-18
  -6.250000        1.0798833E-18
  -6.060000        1.0798855E-18
  -5.870000        1.0798878E-18
  -5.680000        1.0798886E-18
  -5.490000        1.0798879E-18
  -5.300000        1.0798856E-18
  -5.110000        1.0798833E-18
  -4.920000        1.0798824E-18
  -4.730000        1.0798830E-18
  -4.540000        1.0798853E-18
  -4.350000        1.0798884E-18
  -4.160000        1.0798917E-18
  -3.970000        1.0798939E-18
  -3.780000        1.0798939E-18
  -3.590000        1.0798915E-18
  -3.400000        1.0798885E-18
  -3.210000        1.0798858E-18
  -3.020000        1.0798854E-18
  -2.830000        1.0798877E-18
  -2.640000        1.0798911E-18
  -2.450000        1.0798946E-18
  -2.260000        1.0798972E-18
  -2.070000        1.0798970E-18
  -1.880000        1.0798941E-18
  -1.690000        1.0798895E-18
  -1.500000        1.0798857E-18
  -1.310000        1.0798837E-18
  -1.120000        1.0798847E-18
 -0.9300000        1.0798875E-18
 -0.7400000        1.0798910E-18
 -0.5500000        1.0798930E-18
 -0.3600000        1.0798937E-18
 -0.1700000        1.0798926E-18
  2.0000000E-02    1.0798903E-18
  0.2100000        1.0798877E-18
  0.4000000        1.0798864E-18
  0.5900000        1.0798868E-18
  0.7800000        1.0798878E-18
  0.9700000        1.0798894E-18
   1.160000        1.0798898E-18
   1.350000        1.0798889E-18
   1.540000        1.0798857E-18
   1.730000        1.0798815E-18
   1.920000        1.0798778E-18
   2.110000        1.0798764E-18
   2.300000        1.0798780E-18
   2.490000        1.0798816E-18
   2.680000        1.0798851E-18
   2.870000        1.0798873E-18
   3.060000        1.0798878E-18
   3.250000        1.0798864E-18
   3.440000        1.0798847E-18
   3.630000        1.0798840E-18
   3.820000        1.0798853E-18
   4.010000        1.0798882E-18
   4.200000        1.0798921E-18
   4.390000        1.0798961E-18
   4.580000        1.0798989E-18
   4.770000        1.0798992E-18
   4.960000        1.0798976E-18
   5.150000        1.0798945E-18
   5.340000        1.0798906E-18
   5.530000        1.0798877E-18
   5.720000        1.0798867E-18
   5.910000        1.0798871E-18
   6.100000        1.0798884E-18
   6.290000        1.0798899E-18
   6.480000        1.0798904E-18
   6.670000        1.0798895E-18
   6.860000        1.0798876E-18
   7.050000        1.0798849E-18
   7.240000        1.0798837E-18
   7.430000        1.0798844E-18
   7.620000        1.0798878E-18
   7.810000        1.0798915E-18
   8.000000        1.0798949E-18
   8.190000        1.0798962E-18
   8.380000        1.0798947E-18
   8.570000        1.0798915E-18
   8.760000        1.0798881E-18
   8.950000        1.0798858E-18
   9.140000        1.0798862E-18
   9.330000        1.0798883E-18
   9.520000        1.0798912E-18
   9.710000        1.0798939E-18
   9.900000        1.0798943E-18
   10.09000        1.0798914E-18
   10.28000        1.0798874E-18
   10.47000        1.0798837E-18
   10.66000        1.0798813E-18
   10.85000        1.0798810E-18
   11.04000        1.0798833E-18
   11.23000        1.0798871E-18
   11.42000        1.0798907E-18
   11.61000        1.0798927E-18
   11.80000        1.0798920E-18
   11.99000        1.0798899E-18
   12.18000        1.0798869E-18
   12.37000        1.0798845E-18
   12.56000        1.0798851E-18
   12.75000        1.0798879E-18
   12.94000        1.0798918E-18
   13.13000        1.0798959E-18
   13.32000        1.0798970E-18
   13.51000        1.0798957E-18
   13.70000        1.0798912E-18
   13.89000        1.0798854E-18
   14.08000        1.0798804E-18
   14.27000        1.0798783E-18
   14.46000        1.0798790E-18
   14.65000        1.0798821E-18
   14.84000        1.0798849E-18
   15.03000        1.0798858E-18
   15.22000        1.0798846E-18
   15.41000        1.0798815E-18
   15.60000        1.0798792E-18
   15.79000        1.0798784E-18
   15.98000        1.0798810E-18
   16.17000        1.0798853E-18
   16.36000        1.0798912E-18
   16.55000        1.0798969E-18
   16.74000        1.0799000E-18
   16.93000        1.0799006E-18
   17.12000        1.0798977E-18
   17.31000        1.0798930E-18
   17.50000        1.0798878E-18
   17.69000        1.0798839E-18
   17.88000        1.0798814E-18
   18.07000        1.0798810E-18
   18.26000        1.0798820E-18
   18.45000        1.0798844E-18
   18.64000        1.0798882E-18
   18.83000        1.0798944E-18
   19.02000        1.0799050E-18
   19.21000        1.0799204E-18
   19.40000        1.0799377E-18
   19.59000        1.0799524E-18
   19.78000        1.0799589E-18
   19.97000        1.0799499E-18
   20.16000        1.0799219E-18
   20.35000        1.0798732E-18
   20.54000        1.0798075E-18
   20.73000        1.0797308E-18
   20.92000        1.0796516E-18
   21.11000        1.0795798E-18
   21.30000        1.0795257E-18
   21.49000        1.0795021E-18
   21.68000        1.0795227E-18
   21.87000        1.0796032E-18
   22.06000        1.0797543E-18
   22.25000        1.0799794E-18
   22.44000        1.0802693E-18
   22.63000        1.0806024E-18
   22.82000        1.0809447E-18
   23.01000        1.0812532E-18
   23.20000        1.0814832E-18
   23.39000        1.0815959E-18
   23.58000        1.0815597E-18
   23.77000        1.0813501E-18
   23.96000        1.0809507E-18
   24.15000        1.0803488E-18
   24.34000        1.0795377E-18
   24.53000        1.0785251E-18
   24.72000        1.0773423E-18
   24.91000        1.0760542E-18
   25.10000        1.0747689E-18
   25.29000        1.0736355E-18
   25.48000        1.0728353E-18
   25.67000        1.0725603E-18
   25.86000        1.0729862E-18
   26.05000        1.0742457E-18
   26.24000        1.0764058E-18
   26.43000        1.0794503E-18
   26.62000        1.0832723E-18
   26.81000        1.0876712E-18
   27.00000        1.0923584E-18
   27.19000        1.0969678E-18
   27.38000        1.1010699E-18
   27.57000        1.1041907E-18
   27.76000        1.1058414E-18
   27.95000        1.1055547E-18
   28.14000        1.1029388E-18
   28.33000        1.0977359E-18
   28.52000        1.0898882E-18
   28.71000        1.0795889E-18
   28.90000        1.0673086E-18
   29.09000        1.0537831E-18
   29.28000        1.0399566E-18
   29.47000        1.0268881E-18
   29.66000        1.0156513E-18
   29.85000        1.0072545E-18
   30.04000        1.0026040E-18
   30.23000        1.0025138E-18
   30.42000        1.0077448E-18
   30.61000        1.0190167E-18
   30.80000        1.0369556E-18
   30.99000        1.0619345E-18
   31.18000        1.0938272E-18
   31.37000        1.1317330E-18
   31.56000        1.1737556E-18
   31.75000        1.2169417E-18
   31.94000        1.2574245E-18
   32.13000        1.2907805E-18
   32.32000        1.3125233E-18
   32.51000        1.3186382E-18
   32.70000        1.3060516E-18
   32.89000        1.2729695E-18
   33.08000        1.2190890E-18
   33.27000        1.1457138E-18
   33.46000        1.0558191E-18
   33.65000        9.5406970E-19
   33.84000        8.4674416E-19
   34.03000        7.4147555E-19
   34.22000        6.4674140E-19
   34.41000        5.7111455E-19
   34.60000        5.2237345E-19
   34.79000        5.0668323E-19
   34.98000        5.2804305E-19
   35.17000        5.8811606E-19
   35.36000        6.8640104E-19
   35.55000        8.2056001E-19
   35.74000        9.8662702E-19
   35.93000        1.1789259E-18
   36.12000        1.3896840E-18
   36.31000        1.6085635E-18
   36.50000        1.8224950E-18
   36.69000        2.0161436E-18
   36.88000        2.1731528E-18
   37.07000        2.2779702E-18
   37.26000        2.3177963E-18
   37.45000        2.2840808E-18
   37.64000        2.1731749E-18
   37.83000        1.9860791E-18
   38.02000        1.7276416E-18
   38.21000        1.4057793E-18
   38.40000        1.0312492E-18
   38.59000        6.1813289E-19
   38.78000        1.8474145E-19
   38.97000       -2.4574729E-19
   39.16000       -6.4564145E-19
   39.35000       -9.8451626E-19
   39.54000       -1.2322698E-18
   39.73000       -1.3627725E-18
   39.92000       -1.3571168E-18
   40.11000       -1.2056236E-18
   40.30000       -9.0822860E-19
   40.49000       -4.7350227E-19
   40.68000        8.2997771E-20
   40.87000        7.4026373E-19
   41.06000        1.4727519E-18
   41.25000        2.2506770E-18
   41.44000        3.0400726E-18
   41.63000        3.8031440E-18
   41.82000        4.4992388E-18
   42.01000        5.0863977E-18
   42.20000        5.5231987E-18
   42.39000        5.7705960E-18
   42.58000        5.7937360E-18
   42.77000        5.5640536E-18
   42.96000        5.0620658E-18
   43.15000        4.2809881E-18
   43.34000        3.2306982E-18
   43.53000        1.9409717E-18
   43.72000        4.6272840E-19
   43.91000       -1.1335589E-18
   44.10000       -2.7621871E-18
   44.29000       -4.3281973E-18
   44.48000       -5.7334362E-18
   44.67000       -6.8815190E-18
   44.86000       -7.6816070E-18
   45.05000       -8.0521409E-18
   45.24000       -7.9262291E-18
   45.43000       -7.2597556E-18
   45.62000       -6.0415589E-18
   45.81000       -4.3029758E-18
   46.00000       -2.1228379E-18
   46.19000        3.7557358E-19
   46.38000        3.0367970E-18
   46.57000        5.6926044E-18
   46.76000        8.1836469E-18
   46.95000        1.0377461E-17
   47.14000        1.2178363E-17
   47.33000        1.3528006E-17
   47.52000        1.4398850E-17
   47.71000        1.4784763E-17
   47.90000        1.4692590E-17
   48.09000        1.4136125E-17
   48.28000        1.3131038E-17
   48.47000        1.1688285E-17
   48.66000        9.8048770E-18
   48.85000        7.4547792E-18
   49.04000        4.5863323E-18
   49.23000        1.1337514E-18
   49.42000       -2.9531913E-18
   49.61000       -7.6645819E-18
   49.80000       -1.2882727E-17
   49.99000       -1.8348896E-17
   50.18000       -2.3660990E-17
   50.37000       -2.8310654E-17
   50.56000       -3.1755450E-17
   50.75000       -3.3509106E-17
   50.94000       -3.3226019E-17
   51.13000       -3.0757808E-17
   51.32000       -2.6169639E-17
   51.51000       -1.9717476E-17
   51.70000       -1.1798948E-17
   51.89000       -2.8950490E-18
   52.08000        6.4831629E-18
   52.27000        1.5836962E-17
   52.46000        2.4713540E-17
   52.65000        3.2735851E-17
   52.84000        3.9630299E-17
   53.03000        4.5246475E-17
   53.22000        4.9557052E-17
   53.41000        5.2626703E-17
   53.60000        5.4548078E-17
   53.79000        5.5357597E-17
   53.98000        5.4957006E-17
   54.17000        5.3071676E-17
   54.36000        4.9268647E-17
   54.55000        4.3038948E-17
   54.74000        3.3926654E-17
   54.93000        2.1670249E-17
   55.12000        6.3177383E-18
   55.31000       -1.1714111E-17
   55.50000       -3.1647533E-17
   55.69000       -5.2411057E-17
   55.88000       -7.2746551E-17
   56.07000       -9.1334643E-17
   56.26000       -1.0692231E-16
   56.45000       -1.1844338E-16
   56.64000       -1.2512543E-16
   56.83000       -1.2657118E-16
   57.02000       -1.2279687E-16
   57.21000       -1.1420528E-16
   57.40000       -1.0148046E-16
   57.59000       -8.5410230E-17
   57.78000       -6.6670228E-17
   57.97000       -4.5625426E-17
   58.16000       -2.2212766E-17
   58.35000        4.0463281E-18
   58.54000        3.3888011E-17
   58.73000        6.8028247E-17
   58.92000        1.0682525E-16
   59.11000        1.4995836E-16
   59.30000        1.9619325E-16
   59.49000        2.4328139E-16
   59.68000        2.8801280E-16
   59.87000        3.2641815E-16
   60.06000        3.5410059E-16
   60.25000        3.6667125E-16
   60.44000        3.6025333E-16
   60.63000        3.3200849E-16
   60.82000        2.8062043E-16
   61.01000        2.0665680E-16
   61.20000        1.1272791E-16
   61.39000        3.3828192E-18
   61.58000       -1.1527363E-16
   61.77000       -2.3620033E-16
   61.96000       -3.5217928E-16
   62.15000       -4.5658289E-16
   62.34000       -5.4401501E-16
   62.53000       -6.1071960E-16
   62.72000       -6.5470422E-16
   62.91000       -6.7558231E-16
   63.10000       -6.7419016E-16
   63.29000       -6.5206730E-16
   63.48000       -6.1090510E-16
   63.67000       -5.5206950E-16
   63.86000       -4.7629187E-16
   64.05000       -3.8359785E-16
   64.24000       -2.7350617E-16
   64.43000       -1.4547750E-16
   64.62000        4.6535532E-19
   64.81000        1.6307580E-16
   65.00000        3.3933651E-16
   65.19000        5.2416993E-16
   65.38000        7.1049732E-16
   65.57000        8.8965639E-16
   65.76000        1.0521061E-15
   65.95000        1.1882897E-15
   66.14000        1.2895080E-15
   66.33000        1.3486753E-15
   66.52000        1.3608739E-15
   66.71000        1.3236737E-15
   66.90000        1.2372125E-15
   67.09000        1.1040472E-15
   67.28000        9.2879460E-16
   67.47000        7.1758868E-16
   67.66000        4.7741323E-16
   67.85000        2.1540891E-16
   68.04000       -6.1709745E-17
   68.23000       -3.4798475E-16
   68.42000       -6.3819629E-16
   68.61000       -9.2748615E-16
   68.80000       -1.2107236E-15
   68.99000       -1.4818139E-15
   69.18000       -1.7331783E-15
   69.37000       -1.9556079E-15
   69.56000       -2.1385865E-15
   69.75000       -2.2710565E-15
   69.94000       -2.3424891E-15
   70.13000       -2.3440561E-15
   70.32000       -2.2697078E-15
   70.51000       -2.1169981E-15
   70.70000       -1.8875761E-15
   70.89000       -1.5872981E-15
   71.08000       -1.2259564E-15
   71.27000       -8.1663050E-16
   71.46000       -3.7468783E-16
   71.65000        8.3498324E-17
   71.84000        5.4198123E-16
   72.03000        9.8662652E-16
   72.22000        1.4062190E-15
   72.41000        1.7930641E-15
   72.60000        2.1429540E-15
   72.79000        2.4544728E-15
   72.98000        2.7277775E-15
   73.17000        2.9630932E-15
   73.36000        3.1592387E-15
   73.55000        3.3124848E-15
   73.74000        3.4159924E-15
   73.93000        3.4599699E-15
   74.12000        3.4325627E-15
   74.31000        3.3213718E-15
   74.50000        3.1153810E-15
   74.69000        2.8070068E-15
   74.88000        2.3939423E-15
   75.07000        1.8804870E-15
   75.26000        1.2781273E-15
   75.45000        6.0525152E-16
   75.64000       -1.1399444E-16
   75.83000       -8.5155441E-16
   76.02000       -1.5777899E-15
   76.21000       -2.2640159E-15
   76.40000       -2.8849747E-15
   76.59000       -3.4209869E-15
   76.78000       -3.8595531E-15
   76.97000       -4.1961673E-15
   77.16000       -4.4341628E-15
   77.35000       -4.5834719E-15
   77.54000       -4.6583661E-15
   77.73000       -4.6744458E-15
   77.92000       -4.6453722E-15
   78.11000       -4.5799834E-15
   78.30000       -4.4804028E-15
   78.49000       -4.3415601E-15
   78.68000       -4.1522089E-15
   78.87000       -3.8971685E-15
   79.06000       -3.5602548E-15
   79.25000       -3.1272543E-15
   79.44000       -2.5884154E-15
   79.63000       -1.9401330E-15
   79.82000       -1.1857485E-15
   80.01000       -3.3555811E-16
   80.20000        5.9384204E-16
   80.39000        1.5807637E-15
   80.58000        2.6001375E-15
   80.77000        3.6256394E-15
   80.96000        4.6320285E-15
   81.15000        5.5973178E-15
   81.34000        6.5042694E-15
   81.53000        7.3407467E-15
   81.72000        8.0986861E-15
   81.91000        8.7718292E-15
   82.10000        9.3527692E-15
   82.29000        9.8300842E-15
   82.48000        1.0186364E-14
   82.67000        1.0397614E-14
   82.86000        1.0434154E-14
   83.05000        1.0262712E-14
   83.24000        9.8492195E-15
   83.43000        9.1618099E-15
   83.62000        8.1737350E-15
   83.81000        6.8660512E-15
   84.00000        5.2301206E-15
   84.19000        3.2698398E-15
   84.38000        1.0034443E-15
   84.57000       -1.5354638E-15
   84.76000       -4.2979629E-15
   84.95000       -7.2210931E-15
   85.14000       -1.0230223E-14
   85.33000       -1.3242091E-14
   85.52000       -1.6167940E-14
   85.71000       -1.8916290E-14
   85.90000       -2.1395134E-14
   86.09000       -2.3513706E-14
   86.28000       -2.5184175E-14
   86.47000       -2.6323710E-14
   86.66000       -2.6857128E-14
   86.85000       -2.6720112E-14
   87.04000       -2.5862703E-14
   87.23000       -2.4252693E-14
   87.42000       -2.1878629E-14
   87.61000       -1.8752317E-14
   87.80000       -1.4910729E-14
   87.99000       -1.0417237E-14
   88.18000       -5.3618363E-15
   88.37000        1.4014868E-16
   88.56000        5.9513632E-15
   88.75000        1.1917968E-14
   88.94000        1.7877128E-14
   89.13000        2.3665577E-14
   89.32000        2.9127993E-14
   89.51000        3.4123989E-14
   89.70000        3.8532786E-14
   89.89000        4.2255377E-14
   90.08000        4.5214605E-14
   90.27000        4.7353828E-14
   90.46000        4.8635033E-14
   90.65000        4.9036875E-14
   90.84000        4.8552782E-14
   91.03000        4.7189154E-14
   91.22000        4.4963606E-14
   91.41000        4.1903526E-14
   91.60000        3.8045491E-14
   91.79000        3.3436111E-14
   91.98000        2.8134547E-14
   92.17000        2.2216397E-14
   92.36000        1.5777767E-14
   92.55000        8.9380856E-15
   92.74000        1.8401776E-15
   92.93000       -5.3532368E-15
   93.12000       -1.2466522E-14
   93.31000       -1.9320615E-14
   93.50000       -2.5743537E-14
   93.69000       -3.1580461E-14
   93.88000       -3.6702280E-14
   94.07000       -4.1012112E-14
   94.26000       -4.4449680E-14
   94.45000       -4.6993483E-14
   94.64000       -4.8660606E-14
   94.83000       -4.9503916E-14
   95.02000       -4.9606305E-14
   95.21000       -4.9072210E-14
   95.40000       -4.8017048E-14
   95.59000       -4.6555950E-14
   95.78000       -4.4793572E-14
   95.97000       -4.2816614E-14
   96.16000       -4.0690138E-14
   96.35000       -3.8458006E-14
   96.54000       -3.6146684E-14
   96.73000       -3.3771163E-14
   96.92000       -3.1341554E-14
   97.11000       -2.8869004E-14
   97.30000       -2.6370062E-14
   97.49000       -2.3869034E-14
   97.68000       -2.1398022E-14
   97.87000       -1.8994697E-14
   98.06000       -1.6697864E-14
   98.25000       -1.4541311E-14
   98.44000       -1.2546659E-14
   98.63000       -1.0716358E-14
   98.82000       -9.0280524E-15
   99.01000       -7.4313334E-15
   99.20000       -5.8475699E-15
   99.39000       -4.1729120E-15
   99.58000       -2.2842903E-15
   99.77000       -4.7946522E-17
   99.96000        2.6700626E-15
   100.1500        5.9920097E-15
   100.3400        1.0016123E-14
   100.5300        1.4804833E-14
   100.7200        2.0375081E-14
   100.9100        2.6691970E-14
   101.1000        3.3666944E-14
   101.2900        4.1160631E-14
   101.4800        4.8989560E-14
   101.6700        5.6935197E-14
   101.8600        6.4753189E-14
   102.0500        7.2181193E-14
   102.2400        7.8944623E-14
   102.4300        8.4760724E-14
   102.6200        8.9342332E-14
   102.8100        9.2402709E-14
   103.0000        9.3662376E-14
   103.1900        9.2857484E-14
   103.3800        8.9748819E-14
   103.5700        8.4129738E-14
   103.7600        7.5831831E-14
   103.9500        6.4728333E-14
   104.1400        5.0735742E-14
   104.3300        3.3814670E-14
   104.5200        1.3970219E-14
   104.7100       -8.7488043E-15
   104.9000       -3.4253155E-14
   105.0900       -6.2420968E-14
   105.2800       -9.3111005E-14
   105.4700       -1.2618129E-13
   105.6600       -1.6151058E-13
   105.8500       -1.9902035E-13
   106.0400       -2.3869332E-13
   106.2300       -2.8058702E-13
   106.4200       -3.2484139E-13
   106.6100       -3.7168096E-13
   106.8000       -4.2141467E-13
   106.9900       -4.7443332E-13
   107.1800       -5.3120735E-13
   107.3700       -5.9228398E-13
   107.5600       -6.5828376E-13
   107.7500       -7.2989661E-13
   107.9400       -8.0787753E-13
   108.1300       -8.9304318E-13
   108.3200       -9.8627074E-13
   108.5100       -1.0884989E-12
   108.7000       -1.2007289E-12
   108.8900       -1.3240249E-12
   109.0800       -1.4595097E-12
   109.2700       -1.6083559E-12
   109.4600       -1.7717687E-12
   109.6500       -1.9509652E-12
   109.8400       -2.1471516E-12
   110.0300       -2.3614968E-12
   110.2200       -2.5951095E-12
   110.4100       -2.8490157E-12
   110.6000       -3.1241388E-12
   110.7900       -3.4212821E-12
   110.9800       -3.7411181E-12
   111.1700       -4.0841839E-12
   111.3600       -4.4508884E-12
   111.5500       -4.8415274E-12
   111.7400       -5.2563058E-12
   111.9300       -5.6953674E-12
   112.1200       -6.1588217E-12
   112.3100       -6.6467647E-12
   112.5000       -7.1592914E-12
   112.6900       -7.6965049E-12
   112.8800       -8.2585189E-12
   113.0700       -8.8454530E-12
   113.2600       -9.4574392E-12
   113.4500       -1.0094619E-11
   113.6400       -1.0757141E-11
   113.8300       -1.1445163E-11
   114.0200       -1.2158848E-11
   114.2100       -1.2898359E-11
   114.4000       -1.3663876E-11
   114.5900       -1.4455602E-11
   114.7800       -1.5273801E-11
   114.9700       -1.6118828E-11
   115.1600       -1.6991171E-11
   115.3500       -1.7891470E-11
   115.5400       -1.8820535E-11
   115.7300       -1.9779345E-11
   115.9200       -2.0768999E-11
   116.1100       -2.1790724E-11
   116.3000       -2.2845810E-11
   116.4900       -2.3935600E-11
   116.6800       -2.5061455E-11
   116.8700       -2.6224741E-11
   117.0600       -2.7426795E-11
   117.2500       -2.8668899E-11
   117.4400       -2.9952263E-11
   117.6300       -3.1277984E-11
   117.8200       -3.2647027E-11
   118.0100       -3.4060220E-11
   118.2000       -3.5518241E-11
   118.3900       -3.7021643E-11
   118.5800       -3.8570844E-11
   118.7700       -4.0166141E-11
   118.9600       -4.1807700E-11
   119.1500       -4.3495530E-11
   119.3400       -4.5229473E-11
   119.5300       -4.7009202E-11
   119.7200       -4.8834221E-11
   119.9100       -5.0703899E-11
   120.1000       -5.2617442E-11
   120.2900       -5.4573946E-11
   120.4800       -5.6572382E-11
   120.6700       -5.8611609E-11
   120.8600       -6.0690349E-11
   121.0500       -6.2807211E-11
   121.2400       -6.4960676E-11
   121.4300       -6.7149147E-11
   121.6200       -6.9370953E-11
   121.8100       -7.1624373E-11
   122.0000       -7.3907658E-11
   122.1900       -7.6219031E-11
   122.3800       -7.8556744E-11
   122.5700       -8.0919035E-11
   122.7600       -8.3304183E-11
   122.9500       -8.5710473E-11
   123.1400       -8.8136304E-11
   123.3300       -9.0580113E-11
   123.5200       -9.3040430E-11
   123.7100       -9.5515915E-11
   123.9000       -9.8005326E-11
   124.0900       -1.0050751E-10
   124.2800       -1.0302142E-10
   124.4700       -1.0554609E-10
   124.6600       -1.0808063E-10
   124.8500       -1.1062418E-10
   125.0400       -1.1317592E-10
   125.2300       -1.1573498E-10
   125.4200       -1.1830047E-10
   125.6100       -1.2087137E-10
   125.8000       -1.2344652E-10
   125.9900       -1.2602461E-10
   126.1800       -1.2860422E-10
   126.3700       -1.3118373E-10
   126.5600       -1.3376142E-10
   126.7500       -1.3633543E-10
   126.9400       -1.3890383E-10
   127.1300       -1.4146458E-10
   127.3200       -1.4401558E-10
   127.5100       -1.4655469E-10
   127.7000       -1.4907973E-10
   127.8900       -1.5158859E-10
   128.0800       -1.5407907E-10
   128.2700       -1.5654900E-10
   128.4600       -1.5899611E-10
   128.6500       -1.6141813E-10
   128.8400       -1.6381263E-10
   129.0300       -1.6617714E-10
   129.2200       -1.6850903E-10
   129.4100       -1.7080566E-10
   129.6000       -1.7306426E-10
   129.7900       -1.7528203E-10
   129.9800       -1.7745611E-10
   130.1700       -1.7958358E-10
   130.3600       -1.8166151E-10
   130.5500       -1.8368693E-10
   130.7400       -1.8565692E-10
   130.9300       -1.8756863E-10
   131.1200       -1.8941934E-10
   131.3100       -1.9120641E-10
   131.5000       -1.9292748E-10
   131.6900       -1.9458027E-10
   131.8800       -1.9616274E-10
   132.0700       -1.9767304E-10
   132.2600       -1.9910947E-10
   132.4500       -2.0047052E-10
   132.6400       -2.0175489E-10
   132.8300       -2.0296147E-10
   133.0200       -2.0408936E-10
   133.2100       -2.0513777E-10
   133.4000       -2.0610606E-10
   133.5900       -2.0699371E-10
   133.7800       -2.0780018E-10
   133.9700       -2.0852493E-10
   134.1600       -2.0916736E-10
   134.3500       -2.0972681E-10
   134.5400       -2.1020241E-10
   134.7300       -2.1059320E-10
   134.9200       -2.1089797E-10
   135.1100       -2.1111521E-10
   135.3000       -2.1124318E-10
   135.4900       -2.1127985E-10
   135.6800       -2.1122290E-10
   135.8700       -2.1106976E-10
   136.0600       -2.1081760E-10
   136.2500       -2.1046334E-10
   136.4400       -2.1000365E-10
   136.6300       -2.0943501E-10
   136.8200       -2.0875364E-10
   137.0100       -2.0795562E-10
   137.2000       -2.0703703E-10
   137.3900       -2.0599379E-10
   137.5800       -2.0482195E-10
   137.7700       -2.0351758E-10
   137.9600       -2.0207688E-10
   138.1500       -2.0049630E-10
   138.3400       -1.9877243E-10
   138.5300       -1.9690224E-10
   138.7200       -1.9488307E-10
   138.9100       -1.9271265E-10
   139.1000       -1.9038916E-10
   139.2900       -1.8791112E-10
   139.4800       -1.8527736E-10
   139.6700       -1.8248703E-10
   139.8600       -1.7953945E-10
   140.0500       -1.7643415E-10
   140.2400       -1.7317089E-10
   140.4300       -1.6974969E-10
   140.6200       -1.6617085E-10
   140.8100       -1.6243504E-10
   141.0000       -1.5854319E-10
   141.1900       -1.5449657E-10
   141.3800       -1.5029679E-10
   141.5700       -1.4594574E-10
   141.7600       -1.4144565E-10
   141.9500       -1.3679907E-10
   142.1400       -1.3200886E-10
   142.3300       -1.2707811E-10
   142.5200       -1.2201007E-10