  -30.00000        1.0967439E-17
  -29.81000        1.0967439E-17
  -29.62000        1.0967439E-17
  -29.43000        1.0967439E-17
  -29.24000        1.0967440E-17
  -29.05000        1.0967441E-17
  -28.86000        1.0967441E-17
  -28.67000        1.0967441E-17
  -28.48000        1.0967440E-17
  -28.29000        1.0967439E-17
  -28.10000        1.0967438E-17
  -27.91000        1.0967436E-17
  -27.72000        1.0967436E-17
  -27.53000        1.0967438E-17
  -27.34000        1.0967440E-17
  -27.15000        1.0967442E-17
  -26.96000        1.0967443E-17
  -26.77000        1.0967441E-17
  -26.58000        1.0967440E-17
  -26.39000        1.0967437E-17
  -26.20000        1.0967435E-17
  -26.01000        1.0967435E-17
  -25.82000        1.0967436E-17
  -25.63000        1.0967439E-17
  -25.44000        1.0967441E-17
  -25.25000        1.0967442E-17
  -25.06000        1.0967441E-17
  -24.87000        1.0967438E-17
  -24.68000        1.0967436E-17
  -24.49000        1.0967435E-17
  -24.30000        1.0967436E-17
  -24.11000        1.0967437E-17
  -23.92000        1.0967440E-17
  -23.73000        1.0967441E-17
  -23.54000        1.0967441E-17
  -23.35000        1.0967441E-17
  -23.16000        1.0967439E-17
  -22.97000        1.0967438E-17
  -22.78000        1.0967437E-17
  -22.59000        1.0967437E-17
  -22.40000        1.0967439E-17
  -22.21000        1.0967441E-17
  -22.02000        1.0967443E-17
  -21.83000        1.0967444E-17
  -21.64000        1.0967443E-17
  -21.45000        1.0967442E-17
  -21.26000        1.0967441E-17
  -21.07000        1.0967439E-17
  -20.88000        1.0967438E-17
  -20.69000        1.0967439E-17
  -20.50000        1.0967441E-17
  -20.31000        1.0967443E-17
  -20.12000        1.0967444E-17
  -19.93000        1.0967444E-17
  -19.74000        1.0967442E-17
  -19.55000        1.0967440E-17
  -19.36000        1.0967437E-17
  -19.17000        1.0967436E-17
  -18.98000        1.0967436E-17
  -18.79000        1.0967438E-17
  -18.60000        1.0967441E-17
  -18.41000        1.0967443E-17
  -18.22000        1.0967445E-17
  -18.03000        1.0967443E-17
  -17.84000        1.0967441E-17
  -17.65000        1.0967437E-17
  -17.46000        1.0967434E-17
  -17.27000        1.0967434E-17
  -17.08000        1.0967436E-17
  -16.89000        1.0967438E-17
  -16.70000        1.0967441E-17
  -16.51000        1.0967441E-17
  -16.32000        1.0967438E-17
  -16.13000        1.0967433E-17
  -15.94000        1.0967430E-17
  -15.75000        1.0967428E-17
  -15.56000        1.0967431E-17
  -15.37000        1.0967435E-17
  -15.18000        1.0967440E-17
  -14.99000        1.0967444E-17
  -14.80000        1.0967445E-17
  -14.61000        1.0967445E-17
  -14.42000        1.0967441E-17
  -14.23000        1.0967437E-17
  -14.04000        1.0967435E-17
  -13.85000        1.0967435E-17
  -13.66000        1.0967437E-17
  -13.47000        1.0967442E-17
  -13.28000        1.0967446E-17
  -13.09000        1.0967448E-17
  -12.90000        1.0967445E-17
  -12.71000        1.0967441E-17
  -12.52000        1.0967435E-17
  -12.33000        1.0967431E-17
  -12.14000        1.0967433E-17
  -11.95000        1.0967437E-17
  -11.76000        1.0967443E-17
  -11.57000        1.0967447E-17
  -11.38000        1.0967447E-17
  -11.19000        1.0967443E-17
  -11.00000        1.0967436E-17
  -10.81000        1.0967431E-17
  -10.62000        1.0967428E-17
  -10.43000        1.0967430E-17
  -10.24000        1.0967436E-17
  -10.05000        1.0967441E-17
  -9.860000        1.0967446E-17
  -9.670000        1.0967448E-17
  -9.480000        1.0967445E-17
  -9.290000        1.0967441E-17
  -9.100000        1.0967436E-17
  -8.910000        1.0967433E-17
  -8.720000        1.0967434E-17
  -8.530000        1.0967438E-17
  -8.340000        1.0967442E-17
  -8.150000        1.0967445E-17
  -7.960000        1.0967445E-17
  -7.770000        1.0967441E-17
  -7.580000        1.0967434E-17
  -7.390000        1.0967428E-17
  -7.200000        1.0967426E-17
  -7.010000        1.0967427E-17
  -6.820000        1.0967433E-17
  -6.630000        1.0967441E-17
  -6.440000        1.0967446E-17
  -6.250000        1.0967449E-17
  -6.060000        1.0967447E-17
  -5.870000        1.0967442E-17
  -5.680000        1.0967437E-17
  -5.490000        1.0967434E-17
  -5.300000        1.0967435E-17
  -5.110000        1.0967438E-17
  -4.920000        1.0967442E-17
  -4.730000        1.0967445E-17
  -4.540000        1.0967445E-17
  -4.350000        1.0967442E-17
  -4.160000        1.0967439E-17
  -3.970000        1.0967436E-17
  -3.780000        1.0967435E-17
  -3.590000        1.0967438E-17
  -3.400000        1.0967442E-17
  -3.210000        1.0967446E-17
  -3.020000        1.0967449E-17
  -2.830000        1.0967448E-17
  -2.640000        1.0967445E-17
  -2.450000        1.0967440E-17
  -2.260000        1.0967434E-17
  -2.070000        1.0967431E-17
  -1.880000        1.0967431E-17
  -1.690000        1.0967434E-17
  -1.500000        1.0967439E-17
  -1.310000        1.0967444E-17
  -1.120000        1.0967446E-17
 -0.9300000        1.0967445E-17
 -0.7400000        1.0967441E-17
 -0.5500000        1.0967436E-17
 -0.3600000        1.0967433E-17
 -0.1700000        1.0967432E-17
  2.0000000E-02    1.0967434E-17
  0.2100000        1.0967438E-17
  0.4000000        1.0967441E-17
  0.5900000        1.0967444E-17
  0.7800000        1.0967444E-17
  0.9700000        1.0967442E-17
   1.160000        1.0967440E-17
   1.350000        1.0967438E-17
   1.540000        1.0967438E-17
   1.730000        1.0967440E-17
   1.920000        1.0967441E-17
   2.110000        1.0967444E-17
   2.300000        1.0967445E-17
   2.490000        1.0967443E-17
   2.680000        1.0967439E-17
   2.870000        1.0967434E-17
   3.060000        1.0967430E-17
   3.250000        1.0967428E-17
   3.440000        1.0967429E-17
   3.630000        1.0967433E-17
   3.820000        1.0967437E-17
   4.010000        1.0967441E-17
   4.200000        1.0967442E-17
   4.390000        1.0967441E-17
   4.580000        1.0967439E-17
   4.770000        1.0967438E-17
   4.960000        1.0967439E-17
   5.150000        1.0967442E-17
   5.340000        1.0967446E-17
   5.530000        1.0967450E-17
   5.720000        1.0967451E-17
   5.910000        1.0967449E-17
   6.100000        1.0967445E-17
   6.290000        1.0967441E-17
   6.480000        1.0967437E-17
   6.670000        1.0967435E-17
   6.860000        1.0967434E-17
   7.050000        1.0967434E-17
   7.240000        1.0967435E-17
   7.430000        1.0967436E-17
   7.620000        1.0967437E-17
   7.810000        1.0967437E-17
   8.000000        1.0967436E-17
   8.190000        1.0967435E-17
   8.380000        1.0967433E-17
   8.570000        1.0967432E-17
   8.760000        1.0967433E-17
   8.950000        1.0967436E-17
   9.140000        1.0967440E-17
   9.330000        1.0967443E-17
   9.520000        1.0967444E-17
   9.710000        1.0967442E-17
   9.900000        1.0967439E-17
   10.09000        1.0967436E-17
   10.28000        1.0967436E-17
   10.47000        1.0967436E-17
   10.66000        1.0967438E-17
   10.85000        1.0967439E-17
   11.04000        1.0967440E-17
   11.23000        1.0967440E-17
   11.42000        1.0967439E-17
   11.61000        1.0967439E-17
   11.80000        1.0967438E-17
   11.99000        1.0967438E-17
   12.18000        1.0967439E-17
   12.37000        1.0967441E-17
   12.56000        1.0967442E-17
   12.75000        1.0967443E-17
   12.94000        1.0967443E-17
   13.13000        1.0967442E-17
   13.32000        1.0967440E-17
   13.51000        1.0967436E-17
   13.70000        1.0967435E-17
   13.89000        1.0967435E-17
   14.08000        1.0967439E-17
   14.27000        1.0967444E-17
   14.46000        1.0967449E-17
   14.65000        1.0967451E-17
   14.84000        1.0967450E-17
   15.03000        1.0967448E-17
   15.22000        1.0967444E-17
   15.41000        1.0967441E-17
   15.60000        1.0967441E-17
   15.79000        1.0967443E-17
   15.98000        1.0967445E-17
   16.17000        1.0967447E-17
   16.36000        1.0967447E-17
   16.55000        1.0967445E-17
   16.74000        1.0967441E-17
   16.93000        1.0967438E-17
   17.12000        1.0967436E-17
   17.31000        1.0967436E-17
   17.50000        1.0967434E-17
   17.69000        1.0967431E-17
   17.88000        1.0967425E-17
   18.07000        1.0967418E-17
   18.26000        1.0967411E-17
   18.45000        1.0967410E-17
   18.64000        1.0967418E-17
   18.83000        1.0967440E-17
   19.02000        1.0967470E-17
   19.21000        1.0967504E-17
   19.40000        1.0967531E-17
   19.59000        1.0967541E-17
   19.78000        1.0967528E-17
   19.97000        1.0967493E-17
   20.16000        1.0967439E-17
   20.35000        1.0967373E-17
   20.54000        1.0967297E-17
   20.73000        1.0967216E-17
   20.92000        1.0967127E-17
   21.11000        1.0967038E-17
   21.30000        1.0966964E-17
   21.49000        1.0966937E-17
   21.68000        1.0966991E-17
   21.87000        1.0967159E-17
   22.06000        1.0967456E-17
   22.25000        1.0967864E-17
   22.44000        1.0968333E-17
   22.63000        1.0968789E-17
   22.82000        1.0969152E-17
   23.01000        1.0969361E-17
   23.20000        1.0969382E-17
   23.39000        1.0969206E-17
   23.58000        1.0968839E-17
   23.77000        1.0968279E-17
   23.96000        1.0967510E-17
   24.15000        1.0966505E-17
   24.34000        1.0965260E-17
   24.53000        1.0963830E-17
   24.72000        1.0962349E-17
   24.91000        1.0961038E-17
   25.10000        1.0960162E-17
   25.29000        1.0959966E-17
   25.48000        1.0960618E-17
   25.67000        1.0962174E-17
   25.86000        1.0964586E-17
   26.05000        1.0967741E-17
   26.24000        1.0971498E-17
   26.43000        1.0975711E-17
   26.62000        1.0980177E-17
   26.81000        1.0984583E-17
   27.00000        1.0988429E-17
   27.19000        1.0991049E-17
   27.38000        1.0991698E-17
   27.57000        1.0989744E-17
   27.76000        1.0984865E-17
   27.95000        1.0977177E-17
   28.14000        1.0967230E-17
   28.33000        1.0955863E-17
   28.52000        1.0943992E-17
   28.71000        1.0932442E-17
   28.90000        1.0921914E-17
   29.09000        1.0913110E-17
   29.28000        1.0906905E-17
   29.47000        1.0904460E-17
   29.66000        1.0907099E-17
   29.85000        1.0915972E-17
   30.04000        1.0931568E-17
   30.23000        1.0953367E-17
   30.42000        1.0979775E-17
   30.61000        1.1008484E-17
   30.80000        1.1037073E-17
   30.99000        1.1063586E-17
   31.18000        1.1086744E-17
   31.37000        1.1105652E-17
   31.56000        1.1119133E-17
   31.75000        1.1125080E-17
   31.94000        1.1120308E-17
   32.13000        1.1101188E-17
   32.32000        1.1064940E-17
   32.51000        1.1011088E-17
   32.70000        1.0942368E-17
   32.89000        1.0864588E-17
   33.08000        1.0785388E-17
   33.27000        1.0712444E-17
   33.46000        1.0651976E-17
   33.65000        1.0608285E-17
   33.84000        1.0584467E-17
   34.03000        1.0583754E-17
   34.22000        1.0610414E-17
   34.41000        1.0669268E-17
   34.60000        1.0763595E-17
   34.79000        1.0892207E-17
   34.98000        1.1047203E-17
   35.17000        1.1213919E-17
   35.36000        1.1373682E-17
   35.55000        1.1508571E-17
   35.74000        1.1606182E-17
   35.93000        1.1662093E-17
   36.12000        1.1678711E-17
   36.31000        1.1660948E-17
   36.50000        1.1611016E-17
   36.69000        1.1525361E-17
   36.88000        1.1395897E-17
   37.07000        1.1215512E-17
   37.26000        1.0985322E-17
   37.45000        1.0719748E-17
   37.64000        1.0446107E-17
   37.83000        1.0197951E-17
   38.02000        1.0004681E-17
   38.21000        9.8822565E-18
   38.40000        9.8297413E-18
   38.59000        9.8336621E-18
   38.78000        9.8781106E-18
   38.97000        9.9551162E-18
   39.16000        1.0069303E-17
   39.35000        1.0233567E-17
   39.54000        1.0457583E-17
   39.73000        1.0735419E-17
   39.92000        1.1040088E-17
   40.11000        1.1329944E-17
   40.30000        1.1565671E-17
   40.49000        1.1730248E-17
   40.68000        1.1841232E-17
   40.87000        1.1947184E-17
   41.06000        1.2107438E-17
   41.25000        1.2363172E-17
   41.44000        1.2713347E-17
   41.63000        1.3108018E-17
   41.82000        1.3463758E-17
   42.01000        1.3694835E-17
   42.20000        1.3745115E-17
   42.39000        1.3604295E-17
   42.58000        1.3299479E-17
   42.77000        1.2866014E-17
   42.96000        1.2313397E-17
   43.15000        1.1606370E-17
   43.34000        1.0674986E-17
   43.53000        9.4527355E-18
   43.72000        7.9263027E-18
   43.91000        6.1721459E-18
   44.10000        4.3593419E-18
   44.29000        2.7135825E-18
   44.48000        1.4566219E-18
   44.67000        7.4866251E-19
   44.86000        6.6065654E-19
   45.05000        1.1885581E-18
   45.24000        2.2993553E-18
   45.43000        3.9807637E-18
   45.62000        6.2629620E-18
   45.81000        9.1947180E-18
   46.00000        1.2781390E-17
   46.19000        1.6915708E-17
   46.38000        2.1340864E-17
   46.57000        2.5673180E-17
   46.76000        2.9483265E-17
   46.95000        3.2404013E-17
   47.14000        3.4217044E-17
   47.33000        3.4876651E-17
   47.52000        3.4459534E-17
   47.71000        3.3066072E-17
   47.90000        3.0725187E-17
   48.09000        2.7355743E-17
   48.28000        2.2810329E-17
   48.47000        1.6985449E-17
   48.66000        9.9457699E-18
   48.85000        1.9991117E-18
   49.04000       -6.3202674E-18
   49.23000       -1.4358922E-17
   49.42000       -2.1496364E-17
   49.61000       -2.7274019E-17
   49.80000       -3.1444854E-17
   49.99000       -3.3928494E-17
   50.18000       -3.4705881E-17
   50.37000       -3.3719290E-17
   50.56000       -3.0840264E-17
   50.75000       -2.5930638E-17
   50.94000       -1.8968874E-17
   51.13000       -1.0173644E-17
   51.32000       -5.0775303E-20
   51.51000        1.0676725E-17
   51.70000        2.1238886E-17
   51.89000        3.1021182E-17
   52.08000        3.9712041E-17
   52.27000        4.7332330E-17
   52.46000        5.4139113E-17
   52.65000        6.0454349E-17
   52.84000        6.6500901E-17
   53.03000        7.2316834E-17
   53.22000        7.7771210E-17
   53.41000        8.2646838E-17
   53.60000        8.6719379E-17
   53.79000        8.9767897E-17
   53.98000        9.1497121E-17
   54.17000        9.1411915E-17
   54.36000        8.8726053E-17
   54.55000        8.2385958E-17
   54.74000        7.1243339E-17
   54.93000        5.4340747E-17
   55.12000        3.1216340E-17
   55.31000        2.1181027E-18
   55.50000       -3.1947227E-17
   55.69000       -6.9336833E-17
   55.88000       -1.0800432E-16
   56.07000       -1.4574638E-16
   56.26000       -1.8038228E-16
   56.45000       -2.0983801E-16
   56.64000       -2.3216649E-16
   56.83000       -2.4556997E-16
   57.02000       -2.4848204E-16
   57.21000       -2.3972083E-16
   57.40000       -2.1867153E-16
   57.59000       -1.8542533E-16
   57.78000       -1.4081334E-16
   57.97000       -8.6320347E-17
   58.16000       -2.3919878E-17
   58.35000        4.4096264E-17
   58.54000        1.1523049E-16
   58.73000        1.8681850E-16
   58.92000        2.5603551E-16
   59.11000        3.1994311E-16
   59.30000        3.7563563E-16
   59.49000        4.2048950E-16
   59.68000        4.5245244E-16
   59.87000        4.7026745E-16
   60.06000        4.7353636E-16
   60.25000        4.6258666E-16
   60.44000        4.3818584E-16
   60.63000        4.0120774E-16
   60.82000        3.5236597E-16
   61.01000        2.9208888E-16
   61.20000        2.2054088E-16
   61.39000        1.3773918E-16
   61.58000        4.3701242E-17
   61.77000       -6.1409081E-17
   61.96000       -1.7711522E-16
   62.15000       -3.0238650E-16
   62.34000       -4.3528499E-16
   62.53000       -5.7253133E-16
   62.72000       -7.0910883E-16
   62.91000       -8.3808007E-16
   63.10000       -9.5077299E-16
   63.29000       -1.0374032E-15
   63.48000       -1.0880599E-15
   63.67000       -1.0938713E-15
   63.86000       -1.0481130E-15
   64.05000       -9.4706680E-16
   64.24000       -7.9054003E-16
   64.43000       -5.8205791E-16
   64.62000       -3.2879805E-16
   64.81000       -4.1318026E-17
   65.00000        2.6693987E-16
   65.19000        5.8043420E-16
   65.38000        8.8265635E-16
   65.57000        1.1575655E-15
   65.76000        1.3911363E-15
   65.95000        1.5727102E-15
   66.14000        1.6958222E-15
   66.33000        1.7582958E-15
   66.52000        1.7616175E-15
   66.71000        1.7098368E-15
   66.90000        1.6083709E-15
   67.09000        1.4630762E-15
   67.28000        1.2797758E-15
   67.47000        1.0641954E-15
   67.66000        8.2207443E-16
   67.85000        5.5917902E-16
   68.04000        2.8105353E-16
   68.23000       -7.4355025E-18
   68.42000       -3.0252581E-16
   68.61000       -6.0165820E-16
   68.80000       -9.0305433E-16
   68.99000       -1.2048135E-15
   69.18000       -1.5037933E-15
   69.37000       -1.7946648E-15
   69.56000       -2.0694741E-15
   69.75000       -2.3178428E-15
   69.94000       -2.5276926E-15
   70.13000       -2.6862098E-15
   70.32000       -2.7807579E-15
   70.51000       -2.7995875E-15
   70.70000       -2.7323966E-15
   70.89000       -2.5709407E-15
   71.08000       -2.3098904E-15
   71.27000       -1.9479795E-15
   71.46000       -1.4892552E-15
   71.65000       -9.4406004E-16
   71.84000       -3.2934745E-16
   72.03000        3.3192188E-16
   72.22000        1.0122949E-15
   72.41000        1.6819799E-15
   72.60000        2.3112334E-15
   72.79000        2.8725871E-15
   72.98000        3.3426758E-15
   73.17000        3.7036118E-15
   73.36000        3.9439641E-15
   73.55000        4.0594007E-15
   73.74000        4.0529421E-15
   73.93000        3.9346853E-15
   74.12000        3.7208044E-15
   74.31000        3.4317546E-15
   74.50000        3.0898009E-15
   74.69000        2.7162187E-15
   74.88000        2.3286507E-15
   75.07000        1.9390848E-15
   75.26000        1.5527668E-15
   75.45000        1.1681409E-15
   75.64000        7.7770664E-16
   75.83000        3.6960428E-16
   76.02000       -7.0277609E-17
   76.21000       -5.5583334E-16
   76.40000       -1.0980657E-15
   76.59000       -1.7024262E-15
   76.78000       -2.3665095E-15
   76.97000       -3.0785023E-15
   77.16000       -3.8167686E-15
   77.35000       -4.5507679E-15
   77.54000       -5.2432411E-15
   77.73000       -5.8533289E-15
   77.92000       -6.3401411E-15
   78.11000       -6.6662996E-15
   78.30000       -6.8011126E-15
   78.49000       -6.7231995E-15
   78.68000       -6.4225007E-15
   78.87000       -5.9015843E-15
   79.06000       -5.1760498E-15
   79.25000       -4.2737615E-15
   79.44000       -3.2326733E-15
   79.63000       -2.0972345E-15
   79.82000       -9.1374219E-16
   80.01000        2.7463625E-16
   80.20000        1.4322410E-15
   80.39000        2.5338698E-15
   80.58000        3.5658342E-15
   80.77000        4.5251617E-15
   80.96000        5.4174021E-15
   81.15000        6.2536620E-15
   81.34000        7.0473616E-15
   81.53000        7.8109109E-15
   81.72000        8.5522520E-15
   81.91000        9.2711915E-15
   82.10000        9.9557085E-15
   82.29000        1.0578844E-14
   82.48000        1.1097096E-14
   82.67000        1.1451237E-14
   82.86000        1.1570070E-14
   83.05000        1.1376920E-14
   83.24000        1.0797973E-14
   83.43000        9.7710426E-15
   83.62000        8.2533882E-15
   83.81000        6.2275493E-15
   84.00000        3.7048268E-15
   84.19000        7.2656109E-16
   84.38000       -2.6363570E-15
   84.57000       -6.2854512E-15
   84.76000       -1.0098113E-14
   84.95000       -1.3932842E-14
   85.14000       -1.7636529E-14
   85.33000       -2.1053631E-14
   85.52000       -2.4036405E-14
   85.71000       -2.6454733E-14
   85.90000       -2.8203981E-14
   86.09000       -2.9209589E-14
   86.28000       -2.9427991E-14
   86.47000       -2.8844403E-14
   86.66000       -2.7468574E-14
   86.85000       -2.5329916E-14
   87.04000       -2.2472887E-14
   87.23000       -1.8953052E-14
   87.42000       -1.4833742E-14
   87.61000       -1.0183167E-14
   87.80000       -5.0719914E-15
   87.99000        4.2813736E-16
   88.18000        6.2445221E-15
   88.37000        1.2301387E-14
   88.56000        1.8516013E-14
   88.75000        2.4793984E-14
   88.94000        3.1024960E-14
   89.13000        3.7080582E-14
   89.32000        4.2815520E-14
   89.51000        4.8071817E-14
   89.70000        5.2685781E-14
   89.89000        5.6495976E-14
   90.08000        5.9351111E-14
   90.27000        6.1117019E-14
   90.46000        6.1682701E-14
   90.65000        6.0965901E-14
   90.84000        5.8918548E-14
   91.03000        5.5531870E-14
   91.22000        5.0840296E-14
   91.41000        4.4922928E-14
   91.60000        3.7901631E-14
   91.79000        2.9935605E-14
   91.98000        2.1213200E-14
   92.17000        1.1942444E-14
   92.36000        2.3416289E-15
   92.55000       -7.3691367E-15
   92.74000       -1.6975335E-14
   92.93000       -2.6274862E-14
   93.12000       -3.5084670E-14
   93.31000       -4.3247209E-14
   93.50000       -5.0635813E-14
   93.69000       -5.7157749E-14
   93.88000       -6.2753717E-14
   94.07000       -6.7393363E-14
   94.26000       -7.1067711E-14
   94.45000       -7.3780256E-14
   94.64000       -7.5539293E-14
   94.83000       -7.6353312E-14
   95.02000       -7.6230248E-14
   95.21000       -7.5179819E-14
   95.40000       -7.3217528E-14
   95.59000       -7.0368326E-14
   95.78000       -6.6669347E-14
   95.97000       -6.2171520E-14
   96.16000       -5.6941065E-14
   96.35000       -5.1061409E-14
   96.54000       -4.4635526E-14
   96.73000       -3.7787397E-14
   96.92000       -3.0660956E-14
   97.11000       -2.3415170E-14
   97.30000       -1.6214848E-14
   97.49000       -9.2184086E-15
   97.68000       -2.5647323E-15
   97.87000        3.6385113E-15
   98.06000        9.3231078E-15
   98.25000        1.4464345E-14
   98.44000        1.9081025E-14
   98.63000        2.3232123E-14
   98.82000        2.7010866E-14
   99.01000        3.0536520E-14
   99.20000        3.3943802E-14
   99.39000        3.7369884E-14
   99.58000        4.0939759E-14
   99.77000        4.4751420E-14
   99.96000        4.8863383E-14
   100.1500        5.3286873E-14
   100.3400        5.7983959E-14
   100.5300        6.2871122E-14
   100.7200        6.7826339E-14
   100.9100        7.2696867E-14
   101.1000        7.7305797E-14
   101.2900        8.1456780E-14
   101.4800        8.4938011E-14
   101.6700        8.7527045E-14
   101.8600        8.8997664E-14
   102.0500        8.9128507E-14
   102.2400        8.7711725E-14
   102.4300        8.4559868E-14
   102.6200        7.9509316E-14
   102.8100        7.2420463E-14
   103.0000        6.3176142E-14
   103.1900        5.1680224E-14
   103.3800        3.7858232E-14
   103.5700        2.1659984E-14
   103.7600        3.0627727E-15
   103.9500       -1.7927058E-14
   104.1400       -4.1276261E-14
   104.3300       -6.6930748E-14
   104.5200       -9.4824105E-14
   104.7100       -1.2488521E-13
   104.9000       -1.5704202E-13
   105.0900       -1.9122017E-13
   105.2800       -2.2733776E-13
   105.4700       -2.6530072E-13
   105.6600       -3.0500301E-13
   105.8500       -3.4633524E-13
   106.0400       -3.8920175E-13
   106.2300       -4.3354320E-13
   106.4200       -4.7936047E-13
   106.6100       -5.2673604E-13
   106.8000       -5.7585084E-13
   106.9900       -6.2699726E-13
   107.1800       -6.8059143E-13
   107.3700       -7.3718446E-13
   107.5600       -7.9747304E-13
   107.7500       -8.6230551E-13
   107.9400       -9.3268069E-13
   108.1300       -1.0097332E-12
   108.3200       -1.0947092E-12
   108.5100       -1.1889293E-12
   108.7000       -1.2937485E-12
   108.8900       -1.4105171E-12
   109.0800       -1.5405461E-12
   109.2700       -1.6850841E-12
   109.4600       -1.8452978E-12
   109.6500       -2.0222628E-12
   109.8400       -2.2169556E-12
   110.0300       -2.4302511E-12
   110.2200       -2.6629231E-12
   110.4100       -2.9156573E-12
   110.6000       -3.1890651E-12
   110.7900       -3.4837101E-12
   110.9800       -3.8001269E-12
   111.1700       -4.1388407E-12
   111.3600       -4.5003701E-12
   111.5500       -4.8852237E-12
   111.7400       -5.2938873E-12
   111.9300       -5.7268114E-12
   112.1200       -6.1843993E-12
   112.3100       -6.6670042E-12
   112.5000       -7.1749286E-12
   112.6900       -7.7084285E-12
   112.8800       -8.2677216E-12
   113.0700       -8.8529878E-12
   113.2600       -9.4643763E-12
   113.4500       -1.0102011E-11
   113.6400       -1.0766010E-11
   113.8300       -1.1456502E-11
   114.0200       -1.2173657E-11
   114.2100       -1.2917705E-11
   114.4000       -1.3688957E-11
   114.5900       -1.4487809E-11
   114.7800       -1.5314732E-11
   114.9700       -1.6170277E-11
   115.1600       -1.7055047E-11
   115.3500       -1.7969695E-11
   115.5400       -1.8914915E-11
   115.7300       -1.9891431E-11
   115.9200       -2.0899985E-11
   116.1100       -2.1941313E-11
   116.3000       -2.3016119E-11
   116.4900       -2.4125042E-11
   116.6800       -2.5268657E-11
   116.8700       -2.6447447E-11
   117.0600       -2.7661828E-11
   117.2500       -2.8912161E-11
   117.4400       -3.0198760E-11
   117.6300       -3.1521907E-11
   117.8200       -3.2881836E-11
   118.0100       -3.4278733E-11
   118.2000       -3.5712721E-11
   118.3900       -3.7183843E-11
   118.5800       -3.8692067E-11
   118.7700       -4.0237296E-11
   118.9600       -4.1819360E-11
   119.1500       -4.3438024E-11
   119.3400       -4.5092974E-11
   119.5300       -4.6783803E-11
   119.7200       -4.8509995E-11
   119.9100       -5.0270940E-11
   120.1000       -5.2065904E-11
   120.2900       -5.3894087E-11
   120.4800       -5.5754627E-11
   120.6700       -5.7646631E-11
   120.8600       -5.9569190E-11
   121.0500       -6.1521371E-11
   121.2400       -6.3502217E-11
   121.4300       -6.5510743E-11
   121.6200       -6.7545941E-11
   121.8100       -6.9606799E-11
   122.0000       -7.1692305E-11
   122.1900       -7.3801416E-11
   122.3800       -7.5933114E-11
   122.5700       -7.8086350E-11
   122.7600       -8.0260028E-11
   122.9500       -8.2452954E-11
   123.1400       -8.4663873E-11
   123.3300       -8.6891425E-11
   123.5200       -8.9134179E-11
   123.7100       -9.1390610E-11
   123.9000       -9.3659164E-11
   124.0900       -9.5938188E-11
   124.2800       -9.8225976E-11
   124.4700       -1.0052071E-10
   124.6600       -1.0282050E-10
   124.8500       -1.0512335E-10
   125.0400       -1.0742723E-10
   125.2300       -1.0973003E-10
   125.4200       -1.1202967E-10
   125.6100       -1.1432401E-10
   125.8000       -1.1661093E-10
   125.9900       -1.1888830E-10
   126.1800       -1.2115396E-10
   126.3700       -1.2340577E-10
   126.5600       -1.2564157E-10
   126.7500       -1.2785925E-10
   126.9400       -1.3005669E-10
   127.1300       -1.3223175E-10
   127.3200       -1.3438234E-10
   127.5100       -1.3650629E-10
   127.7000       -1.3860144E-10
   127.8900       -1.4066559E-10
   128.0800       -1.4269655E-10
   128.2700       -1.4469215E-10
   128.4600       -1.4665026E-10
   128.6500       -1.4856884E-10
   128.8400       -1.5044586E-10
   129.0300       -1.5227934E-10
   129.2200       -1.5406725E-10
   129.4100       -1.5580755E-10
   129.6000       -1.5749808E-10
   129.7900       -1.5913663E-10
   129.9800       -1.6072085E-10
   130.1700       -1.6224828E-10
   130.3600       -1.6371630E-10
   130.5500       -1.6512208E-10
   130.7400       -1.6646258E-10
   130.9300       -1.6773455E-10
   131.1200       -1.6893459E-10
   131.3100       -1.7005909E-10
   131.5000       -1.7110448E-10
   131.6900       -1.7206717E-10
   131.8800       -1.7294367E-10
   132.0700       -1.7373064E-10
   132.2600       -1.7442486E-10
   132.4500       -1.7502337E-10
   132.6400       -1.7552343E-10
   132.8300       -1.7592264E-10
   133.0200       -1.7621891E-10
   133.2100       -1.7641057E-10
   133.4000       -1.7649614E-10
   133.5900       -1.7647453E-10
   133.7800       -1.7634474E-10
   133.9700       -1.7610589E-10
   134.1600       -1.7575712E-10
   134.3500       -1.7529754E-10
   134.5400       -1.7472623E-10
   134.7300       -1.7404229E-10
   134.9200       -1.7324479E-10
   135.1100       -1.7233279E-10
   135.3000       -1.7130533E-10
   135.4900       -1.7016150E-10
   135.6800       -1.6890034E-10
   135.8700       -1.6752091E-10
   136.0600       -1.6602236E-10
   136.2500       -1.6440393E-10
   136.4400       -1.6266494E-10
   136.6300       -1.6080487E-10
   136.8200       -1.5882329E-10
   137.0100       -1.5671979E-10
   137.2000       -1.5449401E-10
   137.3900       -1.5214550E-10
   137.5800       -1.4967372E-10
   137.7700       -1.4707806E-10
   137.9600       -1.4435778E-10
   138.1500       -1.4151204E-10
   138.3400       -1.3853982E-10
   138.5300       -1.3543998E-10
   138.7200       -1.3221114E-10
   138.9100       -1.2885187E-10
   139.1000       -1.2536056E-10
   139.2900       -1.2173557E-10
   139.4800       -1.1797535E-10
   139.6700       -1.1407852E-10
   139.8600       -1.1004379E-10
   140.0500       -1.0587009E-10
   140.2400       -1.0155658E-10
   140.4300       -9.7102611E-11
   140.6200       -9.2507814E-11
   140.8100       -8.7772158E-11
   141.0000       -8.2895926E-11
   141.1900       -7.7879779E-11
   141.3800       -7.2724771E-11
   141.5700       -6.7432275E-11
   141.7600       -6.2003895E-11
   141.9500       -5.6441490E-11
   142.1400       -5.0747056E-11
   142.3300       -4.4922656E-11
   142.5200       -3.8970379E-11