  -30.00000        9.8420398E-18
  -29.81000        9.8420398E-18
  -29.62000        9.8420398E-18
  -29.43000        9.8420398E-18
  -29.24000        9.8420406E-18
  -29.05000        9.8420423E-18
  -28.86000        9.8420423E-18
  -28.67000        9.8420423E-18
  -28.48000        9.8420406E-18
  -28.29000        9.8420398E-18
  -28.10000        9.8420389E-18
  -27.91000        9.8420381E-18
  -27.72000        9.8420381E-18
  -27.53000        9.8420389E-18
  -27.34000        9.8420406E-18
  -27.15000        9.8420431E-18
  -26.96000        9.8420431E-18
  -26.77000        9.8420414E-18
  -26.58000        9.8420389E-18
  -26.39000        9.8420365E-18
  -26.20000        9.8420356E-18
  -26.01000        9.8420365E-18
  -25.82000        9.8420381E-18
  -25.63000        9.8420406E-18
  -25.44000        9.8420431E-18
  -25.25000        9.8420431E-18
  -25.06000        9.8420423E-18
  -24.87000        9.8420398E-18
  -24.68000        9.8420381E-18
  -24.49000        9.8420373E-18
  -24.30000        9.8420373E-18
  -24.11000        9.8420398E-18
  -23.92000        9.8420423E-18
  -23.73000        9.8420439E-18
  -23.54000        9.8420439E-18
  -23.35000        9.8420431E-18
  -23.16000        9.8420406E-18
  -22.97000        9.8420381E-18
  -22.78000        9.8420365E-18
  -22.59000        9.8420373E-18
  -22.40000        9.8420389E-18
  -22.21000        9.8420414E-18
  -22.02000        9.8420439E-18
  -21.83000        9.8420447E-18
  -21.64000        9.8420431E-18
  -21.45000        9.8420414E-18
  -21.26000        9.8420381E-18
  -21.07000        9.8420365E-18
  -20.88000        9.8420365E-18
  -20.69000        9.8420381E-18
  -20.50000        9.8420398E-18
  -20.31000        9.8420414E-18
  -20.12000        9.8420414E-18
  -19.93000        9.8420406E-18
  -19.74000        9.8420389E-18
  -19.55000        9.8420373E-18
  -19.36000        9.8420356E-18
  -19.17000        9.8420365E-18
  -18.98000        9.8420373E-18
  -18.79000        9.8420398E-18
  -18.60000        9.8420423E-18
  -18.41000        9.8420423E-18
  -18.22000        9.8420414E-18
  -18.03000        9.8420406E-18
  -17.84000        9.8420389E-18
  -17.65000        9.8420381E-18
  -17.46000        9.8420381E-18
  -17.27000        9.8420398E-18
  -17.08000        9.8420414E-18
  -16.89000        9.8420431E-18
  -16.70000        9.8420439E-18
  -16.51000        9.8420439E-18
  -16.32000        9.8420423E-18
  -16.13000        9.8420414E-18
  -15.94000        9.8420406E-18
  -15.75000        9.8420406E-18
  -15.56000        9.8420406E-18
  -15.37000        9.8420431E-18
  -15.18000        9.8420447E-18
  -14.99000        9.8420456E-18
  -14.80000        9.8420447E-18
  -14.61000        9.8420431E-18
  -14.42000        9.8420398E-18
  -14.23000        9.8420373E-18
  -14.04000        9.8420356E-18
  -13.85000        9.8420365E-18
  -13.66000        9.8420373E-18
  -13.47000        9.8420398E-18
  -13.28000        9.8420431E-18
  -13.09000        9.8420439E-18
  -12.90000        9.8420439E-18
  -12.71000        9.8420414E-18
  -12.52000        9.8420389E-18
  -12.33000        9.8420373E-18
  -12.14000        9.8420373E-18
  -11.95000        9.8420389E-18
  -11.76000        9.8420406E-18
  -11.57000        9.8420439E-18
  -11.38000        9.8420447E-18
  -11.19000        9.8420447E-18
  -11.00000        9.8420423E-18
  -10.81000        9.8420389E-18
  -10.62000        9.8420365E-18
  -10.43000        9.8420348E-18
  -10.24000        9.8420356E-18
  -10.05000        9.8420373E-18
  -9.860000        9.8420381E-18
  -9.670000        9.8420389E-18
  -9.480000        9.8420381E-18
  -9.290000        9.8420356E-18
  -9.100000        9.8420340E-18
  -8.910000        9.8420323E-18
  -8.720000        9.8420323E-18
  -8.530000        9.8420348E-18
  -8.340000        9.8420381E-18
  -8.150000        9.8420414E-18
  -7.960000        9.8420439E-18
  -7.770000        9.8420447E-18
  -7.580000        9.8420439E-18
  -7.390000        9.8420423E-18
  -7.200000        9.8420398E-18
  -7.010000        9.8420389E-18
  -6.820000        9.8420389E-18
  -6.630000        9.8420406E-18
  -6.440000        9.8420423E-18
  -6.250000        9.8420431E-18
  -6.060000        9.8420431E-18
  -5.870000        9.8420423E-18
  -5.680000        9.8420389E-18
  -5.490000        9.8420365E-18
  -5.300000        9.8420348E-18
  -5.110000        9.8420356E-18
  -4.920000        9.8420373E-18
  -4.730000        9.8420406E-18
  -4.540000        9.8420431E-18
  -4.350000        9.8420447E-18
  -4.160000        9.8420447E-18
  -3.970000        9.8420423E-18
  -3.780000        9.8420398E-18
  -3.590000        9.8420365E-18
  -3.400000        9.8420356E-18
  -3.210000        9.8420365E-18
  -3.020000        9.8420389E-18
  -2.830000        9.8420414E-18
  -2.640000        9.8420439E-18
  -2.450000        9.8420439E-18
  -2.260000        9.8420414E-18
  -2.070000        9.8420381E-18
  -1.880000        9.8420348E-18
  -1.690000        9.8420340E-18
  -1.500000        9.8420373E-18
  -1.310000        9.8420423E-18
  -1.120000        9.8420480E-18
 -0.9300000        9.8420514E-18
 -0.7400000        9.8420522E-18
 -0.5500000        9.8420505E-18
 -0.3600000        9.8420456E-18
 -0.1700000        9.8420414E-18
  2.0000000E-02    9.8420389E-18
  0.2100000        9.8420389E-18
  0.4000000        9.8420423E-18
  0.5900000        9.8420447E-18
  0.7800000        9.8420472E-18
  0.9700000        9.8420472E-18
   1.160000        9.8420431E-18
   1.350000        9.8420373E-18
   1.540000        9.8420315E-18
   1.730000        9.8420274E-18
   1.920000        9.8420282E-18
   2.110000        9.8420323E-18
   2.300000        9.8420381E-18
   2.490000        9.8420439E-18
   2.680000        9.8420456E-18
   2.870000        9.8420439E-18
   3.060000        9.8420389E-18
   3.250000        9.8420340E-18
   3.440000        9.8420323E-18
   3.630000        9.8420356E-18
   3.820000        9.8420431E-18
   4.010000        9.8420522E-18
   4.200000        9.8420580E-18
   4.390000        9.8420596E-18
   4.580000        9.8420555E-18
   4.770000        9.8420480E-18
   4.960000        9.8420398E-18
   5.150000        9.8420332E-18
   5.340000        9.8420315E-18
   5.530000        9.8420348E-18
   5.720000        9.8420398E-18
   5.910000        9.8420447E-18
   6.100000        9.8420464E-18
   6.290000        9.8420414E-18
   6.480000        9.8420340E-18
   6.670000        9.8420265E-18
   6.860000        9.8420224E-18
   7.050000        9.8420224E-18
   7.240000        9.8420274E-18
   7.430000        9.8420348E-18
   7.620000        9.8420431E-18
   7.810000        9.8420480E-18
   8.000000        9.8420480E-18
   8.190000        9.8420447E-18
   8.380000        9.8420398E-18
   8.570000        9.8420365E-18
   8.760000        9.8420365E-18
   8.950000        9.8420389E-18
   9.140000        9.8420439E-18
   9.330000        9.8420464E-18
   9.520000        9.8420480E-18
   9.710000        9.8420447E-18
   9.900000        9.8420389E-18
   10.09000        9.8420323E-18
   10.28000        9.8420274E-18
   10.47000        9.8420265E-18
   10.66000        9.8420290E-18
   10.85000        9.8420340E-18
   11.04000        9.8420398E-18
   11.23000        9.8420431E-18
   11.42000        9.8420423E-18
   11.61000        9.8420389E-18
   11.80000        9.8420332E-18
   11.99000        9.8420282E-18
   12.18000        9.8420265E-18
   12.37000        9.8420290E-18
   12.56000        9.8420348E-18
   12.75000        9.8420406E-18
   12.94000        9.8420456E-18
   13.13000        9.8420464E-18
   13.32000        9.8420439E-18
   13.51000        9.8420398E-18
   13.70000        9.8420356E-18
   13.89000        9.8420332E-18
   14.08000        9.8420348E-18
   14.27000        9.8420389E-18
   14.46000        9.8420447E-18
   14.65000        9.8420514E-18
   14.84000        9.8420547E-18
   15.03000        9.8420555E-18
   15.22000        9.8420530E-18
   15.41000        9.8420505E-18
   15.60000        9.8420480E-18
   15.79000        9.8420472E-18
   15.98000        9.8420456E-18
   16.17000        9.8420447E-18
   16.36000        9.8420439E-18
   16.55000        9.8420406E-18
   16.74000        9.8420356E-18
   16.93000        9.8420298E-18
   17.12000        9.8420232E-18
   17.31000        9.8420191E-18
   17.50000        9.8420174E-18
   17.69000        9.8420207E-18
   17.88000        9.8420265E-18
   18.07000        9.8420340E-18
   18.26000        9.8420406E-18
   18.45000        9.8420447E-18
   18.64000        9.8420464E-18
   18.83000        9.8420464E-18
   19.02000        9.8420456E-18
   19.21000        9.8420472E-18
   19.40000        9.8420505E-18
   19.59000        9.8420555E-18
   19.78000        9.8420605E-18
   19.97000        9.8420629E-18
   20.16000        9.8420605E-18
   20.35000        9.8420538E-18
   20.54000        9.8420439E-18
   20.73000        9.8420340E-18
   20.92000        9.8420257E-18
   21.11000        9.8420241E-18
   21.30000        9.8420257E-18
   21.49000        9.8420315E-18
   21.68000        9.8420365E-18
   21.87000        9.8420398E-18
   22.06000        9.8420398E-18
   22.25000        9.8420373E-18
   22.44000        9.8420348E-18
   22.63000        9.8420340E-18
   22.82000        9.8420365E-18
   23.01000        9.8420423E-18
   23.20000        9.8420480E-18
   23.39000        9.8420530E-18
   23.58000        9.8420538E-18
   23.77000        9.8420514E-18
   23.96000        9.8420456E-18
   24.15000        9.8420389E-18
   24.34000        9.8420340E-18
   24.53000        9.8420323E-18
   24.72000        9.8420332E-18
   24.91000        9.8420373E-18
   25.10000        9.8420406E-18
   25.29000        9.8420414E-18
   25.48000        9.8420398E-18
   25.67000        9.8420356E-18
   25.86000        9.8420307E-18
   26.05000        9.8420274E-18
   26.24000        9.8420274E-18
   26.43000        9.8420298E-18
   26.62000        9.8420348E-18
   26.81000        9.8420406E-18
   27.00000        9.8420439E-18
   27.19000        9.8420439E-18
   27.38000        9.8420431E-18
   27.57000        9.8420406E-18
   27.76000        9.8420398E-18
   27.95000        9.8420414E-18
   28.14000        9.8420447E-18
   28.33000        9.8420505E-18
   28.52000        9.8420571E-18
   28.71000        9.8420605E-18
   28.90000        9.8420596E-18
   29.09000        9.8420538E-18
   29.28000        9.8420456E-18
   29.47000        9.8420381E-18
   29.66000        9.8420323E-18
   29.85000        9.8420323E-18
   30.04000        9.8420348E-18
   30.23000        9.8420381E-18
   30.42000        9.8420406E-18
   30.61000        9.8420398E-18
   30.80000        9.8420365E-18
   30.99000        9.8420307E-18
   31.18000        9.8420257E-18
   31.37000        9.8420249E-18
   31.56000        9.8420282E-18
   31.75000        9.8420348E-18
   31.94000        9.8420423E-18
   32.13000        9.8420489E-18
   32.32000        9.8420505E-18
   32.51000        9.8420489E-18
   32.70000        9.8420439E-18
   32.89000        9.8420381E-18
   33.08000        9.8420340E-18
   33.27000        9.8420340E-18
   33.46000        9.8420365E-18
   33.65000        9.8420406E-18
   33.84000        9.8420423E-18
   34.03000        9.8420406E-18
   34.22000        9.8420356E-18
   34.41000        9.8420282E-18
   34.60000        9.8420224E-18
   34.79000        9.8420207E-18
   34.98000        9.8420241E-18
   35.17000        9.8420323E-18
   35.36000        9.8420423E-18
   35.55000        9.8420497E-18
   35.74000        9.8420522E-18
   35.93000        9.8420505E-18
   36.12000        9.8420447E-18
   36.31000        9.8420398E-18
   36.50000        9.8420381E-18
   36.69000        9.8420398E-18
   36.88000        9.8420456E-18
   37.07000        9.8420522E-18
   37.26000        9.8420571E-18
   37.45000        9.8420580E-18
   37.64000        9.8420530E-18
   37.83000        9.8420447E-18
   38.02000        9.8420356E-18
   38.21000        9.8420307E-18
   38.40000        9.8420298E-18
   38.59000        9.8420340E-18
   38.78000        9.8420406E-18
   38.97000        9.8420464E-18
   39.16000        9.8420480E-18
   39.35000        9.8420464E-18
   39.54000        9.8420414E-18
   39.73000        9.8420365E-18
   39.92000        9.8420340E-18
   40.11000        9.8420340E-18
   40.30000        9.8420373E-18
   40.49000        9.8420423E-18
   40.68000        9.8420447E-18
   40.87000        9.8420447E-18
   41.06000        9.8420406E-18
   41.25000        9.8420348E-18
   41.44000        9.8420298E-18
   41.63000        9.8420274E-18
   41.82000        9.8420290E-18
   42.01000        9.8420340E-18
   42.20000        9.8420398E-18
   42.39000        9.8420439E-18
   42.58000        9.8420439E-18
   42.77000        9.8420414E-18
   42.96000        9.8420356E-18
   43.15000        9.8420298E-18
   43.34000        9.8420257E-18
   43.53000        9.8420265E-18
   43.72000        9.8420315E-18
   43.91000        9.8420381E-18
   44.10000        9.8420431E-18
   44.29000        9.8420447E-18
   44.48000        9.8420423E-18
   44.67000        9.8420381E-18
   44.86000        9.8420340E-18
   45.05000        9.8420315E-18
   45.24000        9.8420332E-18
   45.43000        9.8420373E-18
   45.62000        9.8420423E-18
   45.81000        9.8420472E-18
   46.00000        9.8420480E-18
   46.19000        9.8420464E-18
   46.38000        9.8420423E-18
   46.57000        9.8420373E-18
   46.76000        9.8420332E-18
   46.95000        9.8420323E-18
   47.14000        9.8420348E-18
   47.33000        9.8420398E-18
   47.52000        9.8420447E-18
   47.71000        9.8420472E-18
   47.90000        9.8420464E-18
   48.09000        9.8420431E-18
   48.28000        9.8420389E-18
   48.47000        9.8420365E-18
   48.66000        9.8420373E-18
   48.85000        9.8420406E-18
   49.04000        9.8420456E-18
   49.23000        9.8420497E-18
   49.42000        9.8420514E-18
   49.61000        9.8420505E-18
   49.80000        9.8420472E-18
   49.99000        9.8420423E-18
   50.18000        9.8420373E-18
   50.37000        9.8420340E-18
   50.56000        9.8420323E-18
   50.75000        9.8420332E-18
   50.94000        9.8420340E-18
   51.13000        9.8420340E-18
   51.32000        9.8420323E-18
   51.51000        9.8420282E-18
   51.70000        9.8420224E-18
   51.89000        9.8420183E-18
   52.08000        9.8420174E-18
   52.27000        9.8420207E-18
   52.46000        9.8420282E-18
   52.65000        9.8420381E-18
   52.84000        9.8420464E-18
   53.03000        9.8420514E-18
   53.22000        9.8420514E-18
   53.41000        9.8420497E-18
   53.60000        9.8420456E-18
   53.79000        9.8420439E-18
   53.98000        9.8420456E-18
   54.17000        9.8420497E-18
   54.36000        9.8420547E-18
   54.55000        9.8420596E-18
   54.74000        9.8420621E-18
   54.93000        9.8420605E-18
   55.12000        9.8420555E-18
   55.31000        9.8420489E-18
   55.50000        9.8420423E-18
   55.69000        9.8420381E-18
   55.88000        9.8420373E-18
   56.07000        9.8420406E-18
   56.26000        9.8420447E-18
   56.45000        9.8420489E-18
   56.64000        9.8420489E-18
   56.83000        9.8420456E-18
   57.02000        9.8420398E-18
   57.21000        9.8420356E-18
   57.40000        9.8420332E-18
   57.59000        9.8420348E-18
   57.78000        9.8420381E-18
   57.97000        9.8420423E-18
   58.16000        9.8420447E-18
   58.35000        9.8420439E-18
   58.54000        9.8420414E-18
   58.73000        9.8420373E-18
   58.92000        9.8420340E-18
   59.11000        9.8420348E-18
   59.30000        9.8420398E-18
   59.49000        9.8420464E-18
   59.68000        9.8420530E-18
   59.87000        9.8420555E-18
   60.06000        9.8420538E-18
   60.25000        9.8420472E-18
   60.44000        9.8420373E-18
   60.63000        9.8420274E-18
   60.82000        9.8420207E-18
   61.01000        9.8420191E-18
   61.20000        9.8420216E-18
   61.39000        9.8420282E-18
   61.58000        9.8420340E-18
   61.77000        9.8420381E-18
   61.96000        9.8420373E-18
   62.15000        9.8420348E-18
   62.34000        9.8420290E-18
   62.53000        9.8420249E-18
   62.72000        9.8420249E-18
   62.91000        9.8420298E-18
   63.10000        9.8420356E-18
   63.29000        9.8420414E-18
   63.48000        9.8420431E-18
   63.67000        9.8420389E-18
   63.86000        9.8420315E-18
   64.05000        9.8420232E-18
   64.24000        9.8420174E-18
   64.43000        9.8420174E-18
   64.62000        9.8420224E-18
   64.81000        9.8420315E-18
   65.00000        9.8420389E-18
   65.19000        9.8420456E-18
   65.38000        9.8420464E-18
   65.57000        9.8420447E-18
   65.76000        9.8420406E-18
   65.95000        9.8420365E-18
   66.14000        9.8420365E-18
   66.33000        9.8420414E-18
   66.52000        9.8420489E-18
   66.71000        9.8420571E-18
   66.90000        9.8420621E-18
   67.09000        9.8420613E-18
   67.28000        9.8420547E-18
   67.47000        9.8420456E-18
   67.66000        9.8420373E-18
   67.85000        9.8420340E-18
   68.04000        9.8420365E-18
   68.23000        9.8420431E-18
   68.42000        9.8420505E-18
   68.61000        9.8420547E-18
   68.80000        9.8420530E-18
   68.99000        9.8420464E-18
   69.18000        9.8420381E-18
   69.37000        9.8420315E-18
   69.56000        9.8420290E-18
   69.75000        9.8420332E-18
   69.94000        9.8420406E-18
   70.13000        9.8420480E-18
   70.32000        9.8420530E-18
   70.51000        9.8420530E-18
   70.70000        9.8420480E-18
   70.89000        9.8420398E-18
   71.08000        9.8420315E-18
   71.27000        9.8420290E-18
   71.46000        9.8420340E-18
   71.65000        9.8420439E-18
   71.84000        9.8420555E-18
   72.03000        9.8420654E-18
   72.22000        9.8420696E-18
   72.41000        9.8420671E-18
   72.60000        9.8420596E-18
   72.79000        9.8420530E-18
   72.98000        9.8420497E-18
   73.17000        9.8420514E-18
   73.36000        9.8420580E-18
   73.55000        9.8420646E-18
   73.74000        9.8420687E-18
   73.93000        9.8420671E-18
   74.12000        9.8420588E-18
   74.31000        9.8420464E-18
   74.50000        9.8420340E-18
   74.69000        9.8420241E-18
   74.88000        9.8420207E-18
   75.07000        9.8420216E-18
   75.26000        9.8420249E-18
   75.45000        9.8420307E-18
   75.64000        9.8420323E-18
   75.83000        9.8420298E-18
   76.02000        9.8420241E-18
   76.21000        9.8420183E-18
   76.40000        9.8420141E-18
   76.59000        9.8420141E-18
   76.78000        9.8420191E-18
   76.97000        9.8420257E-18
   77.16000        9.8420315E-18
   77.35000        9.8420340E-18
   77.54000        9.8420298E-18
   77.73000        9.8420232E-18
   77.92000        9.8420166E-18
   78.11000        9.8420133E-18
   78.30000        9.8420158E-18
   78.49000        9.8420241E-18
   78.68000        9.8420340E-18
   78.87000        9.8420439E-18
   79.06000        9.8420497E-18
   79.25000        9.8420497E-18
   79.44000        9.8420464E-18
   79.63000        9.8420406E-18
   79.82000        9.8420365E-18
   80.01000        9.8420348E-18
   80.20000        9.8420373E-18
   80.39000        9.8420439E-18
   80.58000        9.8420505E-18
   80.77000        9.8420555E-18
   80.96000        9.8420555E-18
   81.15000        9.8420514E-18
   81.34000        9.8420439E-18
   81.53000        9.8420365E-18
   81.72000        9.8420315E-18
   81.91000        9.8420315E-18
   82.10000        9.8420340E-18
   82.29000        9.8420365E-18
   82.48000        9.8420381E-18
   82.67000        9.8420356E-18
   82.86000        9.8420298E-18
   83.05000        9.8420216E-18
   83.24000        9.8420158E-18
   83.43000        9.8420141E-18
   83.62000        9.8420191E-18
   83.81000        9.8420290E-18
   84.00000        9.8420398E-18
   84.19000        9.8420480E-18
   84.38000        9.8420497E-18
   84.57000        9.8420456E-18
   84.76000        9.8420373E-18
   84.95000        9.8420282E-18
   85.14000        9.8420232E-18
   85.33000        9.8420232E-18
   85.52000        9.8420282E-18
   85.71000        9.8420365E-18
   85.90000        9.8420431E-18
   86.09000        9.8420464E-18
   86.28000        9.8420464E-18
   86.47000        9.8420431E-18
   86.66000        9.8420406E-18
   86.85000        9.8420414E-18
   87.04000        9.8420480E-18
   87.23000        9.8420588E-18
   87.42000        9.8420696E-18
   87.61000        9.8420753E-18
   87.80000        9.8420753E-18
   87.99000        9.8420679E-18
   88.18000        9.8420571E-18
   88.37000        9.8420464E-18
   88.56000        9.8420398E-18
   88.75000        9.8420414E-18
   88.94000        9.8420480E-18
   89.13000        9.8420580E-18
   89.32000        9.8420646E-18
   89.51000        9.8420646E-18
   89.70000        9.8420580E-18
   89.89000        9.8420464E-18
   90.08000        9.8420348E-18
   90.27000        9.8420265E-18
   90.46000        9.8420241E-18
   90.65000        9.8420265E-18
   90.84000        9.8420315E-18
   91.03000        9.8420340E-18
   91.22000        9.8420315E-18
   91.41000        9.8420232E-18
   91.60000        9.8420125E-18
   91.79000        9.8420050E-18
   91.98000        9.8420026E-18
   92.17000        9.8420075E-18
   92.36000        9.8420191E-18
   92.55000        9.8420323E-18
   92.74000        9.8420431E-18
   92.93000        9.8420480E-18
   93.12000        9.8420447E-18
   93.31000        9.8420365E-18
   93.50000        9.8420298E-18
   93.69000        9.8420274E-18
   93.88000        9.8420340E-18
   94.07000        9.8420456E-18
   94.26000        9.8420588E-18
   94.45000        9.8420687E-18
   94.64000        9.8420704E-18
   94.83000        9.8420629E-18
   95.02000        9.8420505E-18
   95.21000        9.8420398E-18
   95.40000        9.8420348E-18
   95.59000        9.8420381E-18
   95.78000        9.8420489E-18
   95.97000        9.8420621E-18
   96.16000        9.8420696E-18
   96.35000        9.8420696E-18
   96.54000        9.8420613E-18
   96.73000        9.8420472E-18
   96.92000        9.8420332E-18
   97.11000        9.8420249E-18
   97.30000        9.8420232E-18
   97.49000        9.8420282E-18
   97.68000        9.8420356E-18
   97.87000        9.8420406E-18
   98.06000        9.8420398E-18
   98.25000        9.8420315E-18
   98.44000        9.8420199E-18
   98.63000        9.8420100E-18
   98.82000        9.8420075E-18
   99.01000        9.8420150E-18
   99.20000        9.8420282E-18
   99.39000        9.8420439E-18
   99.58000        9.8420547E-18
   99.77000        9.8420547E-18
   99.96000        9.8420447E-18
   100.1500        9.8420290E-18
   100.3400        9.8420166E-18
   100.5300        9.8420116E-18
   100.7200        9.8420174E-18
   100.9100        9.8420307E-18
   101.1000        9.8420464E-18
   101.2900        9.8420580E-18
   101.4800        9.8420596E-18
   101.6700        9.8420530E-18
   101.8600        9.8420406E-18
   102.0500        9.8420282E-18
   102.2400        9.8420241E-18
   102.4300        9.8420282E-18
   102.6200        9.8420423E-18
   102.8100        9.8420580E-18
   103.0000        9.8420704E-18
   103.1900        9.8420729E-18
   103.3800        9.8420654E-18
   103.5700        9.8420514E-18
   103.7600        9.8420381E-18
   103.9500        9.8420315E-18
   104.1400        9.8420348E-18
   104.3300        9.8420456E-18
   104.5200        9.8420563E-18
   104.7100        9.8420613E-18
   104.9000        9.8420563E-18
   105.0900        9.8420398E-18
   105.2800        9.8420199E-18
   105.4700        9.8420026E-18
   105.6600        9.8419959E-18
   105.8500        9.8419992E-18
   106.0400        9.8420108E-18
   106.2300        9.8420232E-18
   106.4200        9.8420298E-18
   106.6100        9.8420265E-18
   106.8000        9.8420174E-18
   106.9900        9.8420075E-18
   107.1800        9.8420034E-18
   107.3700        9.8420108E-18
   107.5600        9.8420282E-18
   107.7500        9.8420522E-18
   107.9400        9.8420770E-18
   108.1300        9.8420968E-18
   108.3200        9.8421093E-18
   108.5100        9.8421159E-18
   108.7000        9.8421208E-18
   108.8900        9.8421283E-18
   109.0800        9.8421407E-18
   109.2700        9.8421556E-18
   109.4600        9.8421688E-18
   109.6500        9.8421754E-18
   109.8400        9.8421721E-18
   110.0300        9.8421581E-18
   110.2200        9.8421341E-18
   110.4100        9.8421051E-18
   110.6000        9.8420753E-18
   110.7900        9.8420464E-18
   110.9800        9.8420191E-18
   111.1700        9.8419885E-18
   111.3600        9.8419529E-18
   111.5500        9.8419099E-18
   111.7400        9.8418619E-18
   111.9300        9.8418131E-18
   112.1200        9.8417660E-18
   112.3100        9.8417238E-18
   112.5000        9.8416890E-18
   112.6900        9.8416618E-18
   112.8800        9.8416436E-18
   113.0700        9.8416369E-18
   113.2600        9.8416427E-18
   113.4500        9.8416634E-18
   113.6400        9.8416990E-18
   113.8300        9.8417486E-18
   114.0200        9.8418106E-18
   114.2100        9.8418843E-18
   114.4000        9.8419719E-18
   114.5900        9.8420770E-18
   114.7800        9.8422002E-18
   114.9700        9.8423425E-18
   115.1600        9.8424989E-18
   115.3500        9.8426602E-18
   115.5400        9.8428157E-18
   115.7300        9.8429563E-18
   115.9200        9.8430771E-18
   116.1100        9.8431755E-18
   116.3000        9.8432508E-18
   116.4900        9.8433037E-18
   116.6800        9.8433302E-18
   116.8700        9.8433244E-18
   117.0600        9.8432731E-18
   117.2500        9.8431689E-18
   117.4400        9.8430059E-18
   117.6300        9.8427875E-18
   117.8200        9.8425212E-18
   118.0100        9.8422201E-18
   118.2000        9.8418901E-18
   118.3900        9.8415335E-18
   118.5800        9.8411481E-18
   118.7700        9.8407312E-18
   118.9600        9.8402878E-18
   119.1500        9.8398337E-18
   119.3400        9.8393945E-18
   119.5300        9.8390015E-18
   119.7200        9.8386831E-18
   119.9100        9.8384556E-18
   120.1000        9.8383216E-18
   120.2900        9.8382778E-18
   120.4800        9.8383166E-18
   120.6700        9.8384432E-18
   120.8600        9.8386740E-18
   121.0500        9.8390330E-18
   121.2400        9.8395417E-18
   121.4300        9.8402109E-18
   121.6200        9.8410298E-18
   121.8100        9.8419711E-18
   122.0000        9.8429968E-18
   122.1900        9.8440713E-18
   122.3800        9.8451690E-18
   122.5700        9.8462741E-18
   122.7600        9.8473784E-18
   122.9500        9.8484661E-18
   123.1400        9.8495076E-18
   123.3300        9.8504547E-18
   123.5200        9.8512496E-18
   123.7100        9.8518344E-18
   123.9000        9.8521678E-18
   124.0900        9.8522257E-18
   124.2800        9.8519999E-18
   124.4700        9.8514887E-18
   124.6600        9.8506855E-18
   124.8500        9.8495746E-18
   125.0400        9.8481328E-18
   125.2300        9.8463461E-18
   125.4200        9.8442210E-18
   125.6100        9.8417999E-18
   125.8000        9.8391537E-18
   125.9900        9.8363711E-18
   126.1800        9.8335405E-18
   126.3700        9.8307339E-18
   126.5600        9.8280067E-18
   126.7500        9.8254060E-18
   126.9400        9.8229857E-18
   127.1300        9.8208201E-18
   127.3200        9.8190119E-18
   127.5100        9.8176768E-18
   127.7000        9.8169274E-18
   127.8900        9.8168530E-18
   128.0800        9.8175097E-18
   128.2700        9.8189209E-18
   128.4600        9.8210889E-18
   128.6500        9.8240081E-18
   128.8400        9.8276634E-18
   129.0300        9.8320350E-18
   129.2200        9.8370726E-18
   129.4100        9.8426949E-18
   129.6000        9.8487813E-18
   129.7900        9.8551795E-18
   129.9800        9.8617217E-18
   130.1700        9.8682415E-18
   130.3600        9.8745835E-18
   130.5500        9.8805963E-18
   130.7400        9.8861186E-18
   130.9300        9.8909659E-18
   131.1200        9.8949214E-18
   131.3100        9.8977545E-18
   131.5000        9.8992476E-18
   131.6900        9.8992286E-18
   131.8800        9.8975949E-18
   132.0700        9.8943151E-18
   132.2600        9.8894165E-18
   132.4500        9.8829546E-18
   132.6400        9.8749905E-18
   132.8300        9.8655880E-18
   133.0200        9.8548305E-18
   133.2100        9.8428512E-18
   133.4000        9.8298595E-18
   133.5900        9.8161490E-18
   133.7800        9.8020845E-18
   133.9700        9.7880646E-18
   134.1600        9.7744872E-18
   134.3500        9.7617329E-18
   134.5400        9.7501632E-18
   134.7300        9.7401361E-18
   134.9200        9.7320248E-18
   135.1100        9.7262105E-18
   135.3000        9.7230589E-18
   135.4900        9.7228703E-18
   135.6800        9.7258432E-18
   135.8700        9.7320463E-18
   136.0600        9.7414348E-18
   136.2500        9.7538871E-18
   136.4400        9.7692495E-18
   136.6300        9.7873631E-18
   136.8200        9.8080551E-18
   137.0100        9.8310937E-18
   137.2000        9.8561341E-18
   137.3900        9.8826701E-18
   137.5800        9.9100357E-18
   137.7700        9.9374410E-18
   137.9600        9.9640497E-18
   138.1500        9.9890554E-18
   138.3400        1.0011734E-17
   138.5300        1.0031457E-17
   138.7200        1.0047666E-17
   138.9100        1.0059842E-17
   139.1000        1.0067487E-17
   139.2900        1.0070132E-17
   139.4800        1.0067380E-17
   139.6700        1.0058958E-17
   139.8600        1.0044745E-17
   140.0500        1.0024773E-17
   140.2400        9.9992198E-18
   140.4300        9.9683709E-18
   140.6200        9.9326235E-18
   140.8100        9.8925036E-18
   141.0000        9.8487068E-18
   141.1900        9.8021316E-18
   141.3800        9.7538689E-18
   141.5700        9.7051538E-18
   141.7600        9.6572650E-18
   141.9500        9.6114293E-18
   142.1400        9.5687542E-18
   142.3300        9.5302258E-18
   142.5200        9.4967531E-18