  -30.00000        2.2723452E-18
  -29.81000        2.2723452E-18
  -29.62000        2.2723452E-18
  -29.43000        2.2723450E-18
  -29.24000        2.2723452E-18
  -29.05000        2.2723458E-18
  -28.86000        2.2723458E-18
  -28.67000        2.2723460E-18
  -28.48000        2.2723458E-18
  -28.29000        2.2723456E-18
  -28.10000        2.2723454E-18
  -27.91000        2.2723446E-18
  -27.72000        2.2723441E-18
  -27.53000        2.2723448E-18
  -27.34000        2.2723450E-18
  -27.15000        2.2723454E-18
  -26.96000        2.2723466E-18
  -26.77000        2.2723468E-18
  -26.58000        2.2723466E-18
  -26.39000        2.2723466E-18
  -26.20000        2.2723458E-18
  -26.01000        2.2723443E-18
  -25.82000        2.2723429E-18
  -25.63000        2.2723425E-18
  -25.44000        2.2723437E-18
  -25.25000        2.2723456E-18
  -25.06000        2.2723474E-18
  -24.87000        2.2723479E-18
  -24.68000        2.2723470E-18
  -24.49000        2.2723452E-18
  -24.30000        2.2723433E-18
  -24.11000        2.2723410E-18
  -23.92000        2.2723410E-18
  -23.73000        2.2723421E-18
  -23.54000        2.2723441E-18
  -23.35000        2.2723466E-18
  -23.16000        2.2723479E-18
  -22.97000        2.2723477E-18
  -22.78000        2.2723477E-18
  -22.59000        2.2723462E-18
  -22.40000        2.2723448E-18
  -22.21000        2.2723443E-18
  -22.02000        2.2723452E-18
  -21.83000        2.2723472E-18
  -21.64000        2.2723489E-18
  -21.45000        2.2723491E-18
  -21.26000        2.2723483E-18
  -21.07000        2.2723456E-18
  -20.88000        2.2723435E-18
  -20.69000        2.2723417E-18
  -20.50000        2.2723410E-18
  -20.31000        2.2723419E-18
  -20.12000        2.2723439E-18
  -19.93000        2.2723458E-18
  -19.74000        2.2723462E-18
  -19.55000        2.2723458E-18
  -19.36000        2.2723439E-18
  -19.17000        2.2723423E-18
  -18.98000        2.2723412E-18
  -18.79000        2.2723425E-18
  -18.60000        2.2723452E-18
  -18.41000        2.2723485E-18
  -18.22000        2.2723510E-18
  -18.03000        2.2723520E-18
  -17.84000        2.2723508E-18
  -17.65000        2.2723481E-18
  -17.46000        2.2723458E-18
  -17.27000        2.2723446E-18
  -17.08000        2.2723446E-18
  -16.89000        2.2723456E-18
  -16.70000        2.2723468E-18
  -16.51000        2.2723477E-18
  -16.32000        2.2723477E-18
  -16.13000        2.2723468E-18
  -15.94000        2.2723464E-18
  -15.75000        2.2723456E-18
  -15.56000        2.2723448E-18
  -15.37000        2.2723443E-18
  -15.18000        2.2723439E-18
  -14.99000        2.2723439E-18
  -14.80000        2.2723441E-18
  -14.61000        2.2723435E-18
  -14.42000        2.2723425E-18
  -14.23000        2.2723408E-18
  -14.04000        2.2723394E-18
  -13.85000        2.2723398E-18
  -13.66000        2.2723412E-18
  -13.47000        2.2723446E-18
  -13.28000        2.2723472E-18
  -13.09000        2.2723495E-18
  -12.90000        2.2723508E-18
  -12.71000        2.2723510E-18
  -12.52000        2.2723499E-18
  -12.33000        2.2723487E-18
  -12.14000        2.2723470E-18
  -11.95000        2.2723464E-18
  -11.76000        2.2723460E-18
  -11.57000        2.2723458E-18
  -11.38000        2.2723460E-18
  -11.19000        2.2723462E-18
  -11.00000        2.2723468E-18
  -10.81000        2.2723477E-18
  -10.62000        2.2723472E-18
  -10.43000        2.2723462E-18
  -10.24000        2.2723454E-18
  -10.05000        2.2723448E-18
  -9.860000        2.2723456E-18
  -9.670000        2.2723466E-18
  -9.480000        2.2723474E-18
  -9.290000        2.2723462E-18
  -9.100000        2.2723435E-18
  -8.910000        2.2723408E-18
  -8.720000        2.2723388E-18
  -8.530000        2.2723390E-18
  -8.340000        2.2723419E-18
  -8.150000        2.2723464E-18
  -7.960000        2.2723512E-18
  -7.770000        2.2723530E-18
  -7.580000        2.2723530E-18
  -7.390000        2.2723508E-18
  -7.200000        2.2723477E-18
  -7.010000        2.2723450E-18
  -6.820000        2.2723441E-18
  -6.630000        2.2723452E-18
  -6.440000        2.2723474E-18
  -6.250000        2.2723485E-18
  -6.060000        2.2723474E-18
  -5.870000        2.2723431E-18
  -5.680000        2.2723373E-18
  -5.490000        2.2723311E-18
  -5.300000        2.2723274E-18
  -5.110000        2.2723274E-18
  -4.920000        2.2723315E-18
  -4.730000        2.2723371E-18
  -4.540000        2.2723431E-18
  -4.350000        2.2723470E-18
  -4.160000        2.2723479E-18
  -3.970000        2.2723472E-18
  -3.780000        2.2723452E-18
  -3.590000        2.2723435E-18
  -3.400000        2.2723437E-18
  -3.210000        2.2723462E-18
  -3.020000        2.2723495E-18
  -2.830000        2.2723526E-18
  -2.640000        2.2723532E-18
  -2.450000        2.2723516E-18
  -2.260000        2.2723487E-18
  -2.070000        2.2723460E-18
  -1.880000        2.2723448E-18
  -1.690000        2.2723458E-18
  -1.500000        2.2723481E-18
  -1.310000        2.2723516E-18
  -1.120000        2.2723541E-18
 -0.9300000        2.2723551E-18
 -0.7400000        2.2723541E-18
 -0.5500000        2.2723520E-18
 -0.3600000        2.2723491E-18
 -0.1700000        2.2723462E-18
  2.0000000E-02    2.2723437E-18
  0.2100000        2.2723427E-18
  0.4000000        2.2723421E-18
  0.5900000        2.2723408E-18
  0.7800000        2.2723394E-18
  0.9700000        2.2723373E-18
   1.160000        2.2723346E-18
   1.350000        2.2723330E-18
   1.540000        2.2723324E-18
   1.730000        2.2723348E-18
   1.920000        2.2723396E-18
   2.110000        2.2723458E-18
   2.300000        2.2723516E-18
   2.490000        2.2723559E-18
   2.680000        2.2723594E-18
   2.870000        2.2723615E-18
   3.060000        2.2723627E-18
   3.250000        2.2723621E-18
   3.440000        2.2723592E-18
   3.630000        2.2723551E-18
   3.820000        2.2723505E-18
   4.010000        2.2723458E-18
   4.200000        2.2723423E-18
   4.390000        2.2723398E-18
   4.580000        2.2723379E-18
   4.770000        2.2723359E-18
   4.960000        2.2723334E-18
   5.150000        2.2723315E-18
   5.340000        2.2723299E-18
   5.530000        2.2723297E-18
   5.720000        2.2723313E-18
   5.910000        2.2723342E-18
   6.100000        2.2723386E-18
   6.290000        2.2723433E-18
   6.480000        2.2723474E-18
   6.670000        2.2723508E-18
   6.860000        2.2723528E-18
   7.050000        2.2723541E-18
   7.240000        2.2723543E-18
   7.430000        2.2723543E-18
   7.620000        2.2723530E-18
   7.810000        2.2723514E-18
   8.000000        2.2723497E-18
   8.190000        2.2723466E-18
   8.380000        2.2723433E-18
   8.570000        2.2723392E-18
   8.760000        2.2723355E-18
   8.950000        2.2723340E-18
   9.140000        2.2723352E-18
   9.330000        2.2723383E-18
   9.520000        2.2723423E-18
   9.710000        2.2723452E-18
   9.900000        2.2723458E-18
   10.09000        2.2723441E-18
   10.28000        2.2723412E-18
   10.47000        2.2723383E-18
   10.66000        2.2723371E-18
   10.85000        2.2723379E-18
   11.04000        2.2723417E-18
   11.23000        2.2723466E-18
   11.42000        2.2723516E-18
   11.61000        2.2723551E-18
   11.80000        2.2723553E-18
   11.99000        2.2723545E-18
   12.18000        2.2723522E-18
   12.37000        2.2723505E-18
   12.56000        2.2723505E-18
   12.75000        2.2723522E-18
   12.94000        2.2723555E-18
   13.13000        2.2723582E-18
   13.32000        2.2723592E-18
   13.51000        2.2723576E-18
   13.70000        2.2723541E-18
   13.89000        2.2723493E-18
   14.08000        2.2723450E-18
   14.27000        2.2723429E-18
   14.46000        2.2723433E-18
   14.65000        2.2723452E-18
   14.84000        2.2723470E-18
   15.03000        2.2723466E-18
   15.22000        2.2723439E-18
   15.41000        2.2723398E-18
   15.60000        2.2723361E-18
   15.79000        2.2723344E-18
   15.98000        2.2723355E-18
   16.17000        2.2723383E-18
   16.36000        2.2723415E-18
   16.55000        2.2723425E-18
   16.74000        2.2723406E-18
   16.93000        2.2723369E-18
   17.12000        2.2723324E-18
   17.31000        2.2723292E-18
   17.50000        2.2723299E-18
   17.69000        2.2723346E-18
   17.88000        2.2723419E-18
   18.07000        2.2723499E-18
   18.26000        2.2723574E-18
   18.45000        2.2723615E-18
   18.64000        2.2723621E-18
   18.83000        2.2723590E-18
   19.02000        2.2723541E-18
   19.21000        2.2723489E-18
   19.40000        2.2723458E-18
   19.59000        2.2723448E-18
   19.78000        2.2723452E-18
   19.97000        2.2723466E-18
   20.16000        2.2723468E-18
   20.35000        2.2723448E-18
   20.54000        2.2723417E-18
   20.73000        2.2723396E-18
   20.92000        2.2723404E-18
   21.11000        2.2723446E-18
   21.30000        2.2723512E-18
   21.49000        2.2723578E-18
   21.68000        2.2723617E-18
   21.87000        2.2723623E-18
   22.06000        2.2723586E-18
   22.25000        2.2723520E-18
   22.44000        2.2723450E-18
   22.63000        2.2723408E-18
   22.82000        2.2723396E-18
   23.01000        2.2723410E-18
   23.20000        2.2723435E-18
   23.39000        2.2723443E-18
   23.58000        2.2723429E-18
   23.77000        2.2723390E-18
   23.96000        2.2723338E-18
   24.15000        2.2723301E-18
   24.34000        2.2723292E-18
   24.53000        2.2723326E-18
   24.72000        2.2723381E-18
   24.91000        2.2723441E-18
   25.10000        2.2723485E-18
   25.29000        2.2723491E-18
   25.48000        2.2723460E-18
   25.67000        2.2723400E-18
   25.86000        2.2723336E-18
   26.05000        2.2723301E-18
   26.24000        2.2723315E-18
   26.43000        2.2723369E-18
   26.62000        2.2723450E-18
   26.81000        2.2723514E-18
   27.00000        2.2723543E-18
   27.19000        2.2723524E-18
   27.38000        2.2723481E-18
   27.57000        2.2723448E-18
   27.76000        2.2723441E-18
   27.95000        2.2723472E-18
   28.14000        2.2723518E-18
   28.33000        2.2723549E-18
   28.52000        2.2723551E-18
   28.71000        2.2723510E-18
   28.90000        2.2723443E-18
   29.09000        2.2723381E-18
   29.28000        2.2723359E-18
   29.47000        2.2723390E-18
   29.66000        2.2723460E-18
   29.85000        2.2723541E-18
   30.04000        2.2723601E-18
   30.23000        2.2723619E-18
   30.42000        2.2723588E-18
   30.61000        2.2723526E-18
   30.80000        2.2723464E-18
   30.99000        2.2723425E-18
   31.18000        2.2723427E-18
   31.37000        2.2723472E-18
   31.56000        2.2723532E-18
   31.75000        2.2723570E-18
   31.94000        2.2723561E-18
   32.13000        2.2723505E-18
   32.32000        2.2723417E-18
   32.51000        2.2723336E-18
   32.70000        2.2723307E-18
   32.89000        2.2723348E-18
   33.08000        2.2723448E-18
   33.27000        2.2723565E-18
   33.46000        2.2723650E-18
   33.65000        2.2723671E-18
   33.84000        2.2723621E-18
   34.03000        2.2723526E-18
   34.22000        2.2723425E-18
   34.41000        2.2723350E-18
   34.60000        2.2723315E-18
   34.79000        2.2723326E-18
   34.98000        2.2723352E-18
   35.17000        2.2723361E-18
   35.36000        2.2723342E-18
   35.55000        2.2723295E-18
   35.74000        2.2723237E-18
   35.93000        2.2723214E-18
   36.12000        2.2723249E-18
   36.31000        2.2723336E-18
   36.50000        2.2723456E-18
   36.69000        2.2723563E-18
   36.88000        2.2723623E-18
   37.07000        2.2723607E-18
   37.26000        2.2723537E-18
   37.45000        2.2723450E-18
   37.64000        2.2723381E-18
   37.83000        2.2723363E-18
   38.02000        2.2723410E-18
   38.21000        2.2723501E-18
   38.40000        2.2723596E-18
   38.59000        2.2723646E-18
   38.78000        2.2723632E-18
   38.97000        2.2723545E-18
   39.16000        2.2723427E-18
   39.35000        2.2723332E-18
   39.54000        2.2723297E-18
   39.73000        2.2723338E-18
   39.92000        2.2723429E-18
   40.11000        2.2723522E-18
   40.30000        2.2723570E-18
   40.49000        2.2723543E-18
   40.68000        2.2723456E-18
   40.87000        2.2723350E-18
   41.06000        2.2723264E-18
   41.25000        2.2723228E-18
   41.44000        2.2723247E-18
   41.63000        2.2723299E-18
   41.82000        2.2723363E-18
   42.01000        2.2723408E-18
   42.20000        2.2723417E-18
   42.39000        2.2723383E-18
   42.58000        2.2723315E-18
   42.77000        2.2723245E-18
   42.96000        2.2723208E-18
   43.15000        2.2723228E-18
   43.34000        2.2723303E-18
   43.53000        2.2723410E-18
   43.72000        2.2723516E-18
   43.91000        2.2723582E-18
   44.10000        2.2723613E-18
   44.29000        2.2723638E-18
   44.48000        2.2723714E-18
   44.67000        2.2723886E-18
   44.86000        2.2724180E-18
   45.05000        2.2724573E-18
   45.24000        2.2725015E-18
   45.43000        2.2725458E-18
   45.62000        2.2725859E-18
   45.81000        2.2726190E-18
   46.00000        2.2726440E-18
   46.19000        2.2726593E-18
   46.38000        2.2726622E-18
   46.57000        2.2726492E-18
   46.76000        2.2726148E-18
   46.95000        2.2725536E-18
   47.14000        2.2724581E-18
   47.33000        2.2723241E-18
   47.52000        2.2721510E-18
   47.71000        2.2719411E-18
   47.90000        2.2717031E-18
   48.09000        2.2714497E-18
   48.28000        2.2711939E-18
   48.47000        2.2709470E-18
   48.66000        2.2707193E-18
   48.85000        2.2705223E-18
   49.04000        2.2703680E-18
   49.23000        2.2702747E-18
   49.42000        2.2702630E-18
   49.61000        2.2703558E-18
   49.80000        2.2705750E-18
   49.99000        2.2709392E-18
   50.18000        2.2714584E-18
   50.37000        2.2721351E-18
   50.56000        2.2729629E-18
   50.75000        2.2739290E-18
   50.94000        2.2750151E-18
   51.13000        2.2761934E-18
   51.32000        2.2774286E-18
   51.51000        2.2786739E-18
   51.70000        2.2798721E-18
   51.89000        2.2809557E-18
   52.08000        2.2818476E-18
   52.27000        2.2824653E-18
   52.46000        2.2827257E-18
   52.65000        2.2825476E-18
   52.84000        2.2818592E-18
   53.03000        2.2805996E-18
   53.22000        2.2787240E-18
   53.41000        2.2762087E-18
   53.60000        2.2730518E-18
   53.79000        2.2692792E-18
   53.98000        2.2649483E-18
   54.17000        2.2601536E-18
   54.36000        2.2550306E-18
   54.55000        2.2497567E-18
   54.74000        2.2445480E-18
   54.93000        2.2396523E-18
   55.12000        2.2353441E-18
   55.31000        2.2319118E-18
   55.50000        2.2296492E-18
   55.69000        2.2288442E-18
   55.88000        2.2297667E-18
   56.07000        2.2326558E-18
   56.26000        2.2377039E-18
   56.45000        2.2450406E-18
   56.64000        2.2547171E-18
   56.83000        2.2666889E-18
   57.02000        2.2808085E-18
   57.21000        2.2968144E-18
   57.40000        2.3143329E-18
   57.59000        2.3328756E-18
   57.78000        2.3518463E-18
   57.97000        2.3705481E-18
   58.16000        2.3881993E-18
   58.35000        2.4039500E-18
   58.54000        2.4169088E-18
   58.73000        2.4261689E-18
   58.92000        2.4308363E-18
   59.11000        2.4300722E-18
   59.30000        2.4231315E-18
   59.49000        2.4094038E-18
   59.68000        2.3884551E-18
   59.87000        2.3600633E-18
   60.06000        2.3242563E-18
   60.25000        2.2813360E-18
   60.44000        2.2319058E-18
   60.63000        2.1768869E-18
   60.82000        2.1175317E-18
   61.01000        2.0554206E-18
   61.20000        1.9924519E-18
   61.39000        1.9308099E-18
   61.58000        1.8729236E-18
   61.77000        1.8214050E-18
   61.96000        1.7789789E-18
   62.15000        1.7483995E-18
   62.34000        1.7323585E-18
   62.53000        1.7333832E-18
   62.72000        1.7537217E-18
   62.91000        1.7952288E-18
   63.10000        1.8592489E-18
   63.29000        1.9464964E-18
   63.48000        2.0569546E-18
   63.67000        2.1897787E-18
   63.86000        2.3432259E-18
   64.05000        2.5146057E-18
   64.24000        2.7002594E-18
   64.43000        2.8955743E-18
   64.62000        3.0950367E-18
   64.81000        3.2923155E-18
   65.00000        3.4803914E-18
   65.19000        3.6517150E-18
   65.38000        3.7984043E-18
   65.57000        3.9124766E-18
   65.76000        3.9861056E-18
   65.95000        4.0119050E-18
   66.14000        3.9832200E-18
   66.33000        3.8944255E-18
   66.52000        3.7412180E-18
   66.71000        3.5208897E-18
   66.90000        3.2325894E-18
   67.09000        2.8775496E-18
   67.28000        2.4592805E-18
   67.47000        1.9837226E-18
   67.66000        1.4593421E-18
   67.85000        8.9716847E-19
   68.04000        3.1075327E-19
   68.23000       -2.8394949E-19
   68.42000       -8.6879235E-19
   68.61000       -1.4237403E-18
   68.80000       -1.9272820E-18
   68.99000       -2.3569449E-18
   69.18000       -2.6899167E-18
   69.37000       -2.9037762E-18
   69.56000       -2.9773014E-18
   69.75000       -2.8913652E-18
   69.94000       -2.6298762E-18
   70.13000       -2.1807442E-18
   70.32000       -1.5368276E-18
   70.51000       -6.9681865E-19
   70.70000        3.3398555E-19
   70.89000        1.5430737E-18
   71.08000        2.9103295E-18
   71.27000        4.4078933E-18
   71.46000        6.0003243E-18
   71.65000        7.6450795E-18
   71.84000        9.2933262E-18
   72.03000        1.0891089E-17
   72.22000        1.2380722E-17
   72.41000        1.3702652E-17
   72.60000        1.4797381E-17
   72.79000        1.5607636E-17
   72.98000        1.6080631E-17
   73.17000        1.6170319E-17
   73.36000        1.5839581E-17
   73.55000        1.5062218E-17
   73.74000        1.3824686E-17
   73.93000        1.2127495E-17
   74.12000        9.9861652E-18
   74.31000        7.4317306E-18
   74.50000        4.5107172E-18
   74.69000        1.2845858E-18
   74.88000       -2.1713617E-18
   75.07000       -5.7696088E-18
   75.26000       -9.4125329E-18
   75.45000       -1.2994961E-17
   75.64000       -1.6407086E-17
   75.83000       -1.9537670E-17
   76.02000       -2.2277428E-17
   76.21000       -2.4522496E-17
   76.40000       -2.6177864E-17
   76.59000       -2.7160686E-17
   76.78000       -2.7403331E-17
   76.97000       -2.6856094E-17
   77.16000       -2.5489446E-17
   77.35000       -2.3295729E-17
   77.54000       -2.0290241E-17
   77.73000       -1.6511643E-17
   77.92000       -1.2021664E-17
   78.11000       -6.9040741E-18
   78.30000       -1.2629742E-18
   78.49000        4.7795927E-18
   78.68000        1.1086608E-17
   78.87000        1.7509561E-17
   79.06000        2.3892325E-17
   79.25000        3.0075298E-17
   79.44000        3.5899662E-17
   79.63000        4.1211604E-17
   79.82000        4.5866368E-17
   80.01000        4.9731955E-17
   80.20000        5.2692384E-17
   80.39000        5.4650374E-17
   80.58000        5.5529462E-17
   80.77000        5.5275378E-17
   80.96000        5.3856850E-17
   81.15000        5.1265723E-17
   81.34000        4.7516533E-17
   81.53000        4.2645611E-17
   81.72000        3.6709806E-17
   81.91000        2.9784941E-17
   82.10000        2.1964152E-17
   82.29000        1.3356224E-17
   82.48000        4.0840173E-18
   82.67000       -5.7168905E-18
   82.86000       -1.5899348E-17
   83.05000       -2.6305483E-17
   83.24000       -3.6767305E-17
   83.43000       -4.7107145E-17
   83.62000       -5.7137918E-17
   83.81000       -6.6663425E-17
   84.00000       -7.5478768E-17
   84.19000       -8.3371110E-17
   84.38000       -9.0120917E-17
   84.57000       -9.5504024E-17
   84.76000       -9.9294569E-17
   84.95000       -1.0126917E-16
   85.14000       -1.0121234E-16
   85.33000       -9.8923357E-17
   85.52000       -9.4224468E-17
   85.71000       -8.6970617E-17
   85.90000       -7.7060060E-17
   86.09000       -6.4445966E-17
   86.28000       -4.9148223E-17
   86.47000       -3.1264913E-17
   86.66000       -1.0982705E-17
   86.85000        1.1414685E-17
   87.04000        3.5540877E-17
   87.23000        6.0904958E-17
   87.42000        8.6914124E-17
   87.61000        1.1288149E-16
   87.80000        1.3803954E-16
   87.99000        1.6155944E-16
   88.18000        1.8257585E-16
   88.37000        2.0021684E-16
   88.56000        2.1363812E-16
   88.75000        2.2205985E-16
   88.94000        2.2480493E-16
   89.13000        2.2133650E-16
   89.32000        2.1129287E-16
   89.51000        1.9451762E-16
   89.70000        1.7108309E-16
   89.89000        1.4130527E-16
   90.08000        1.0574907E-16
   90.27000        6.5222629E-17
   90.46000        2.0760660E-17
   90.65000       -2.6403160E-17
   90.84000       -7.4873921E-17
   91.03000       -1.2314176E-16
   91.22000       -1.6963501E-16
   91.41000       -2.1277779E-16
   91.60000       -2.5104950E-16
   91.79000       -2.8304358E-16
   91.98000       -3.0752286E-16
   92.17000       -3.2346926E-16
   92.36000       -3.3012559E-16
   92.55000       -3.2702759E-16
   92.74000       -3.1402569E-16
   92.93000       -2.9129487E-16
   93.12000       -2.5933356E-16
   93.31000       -2.1895100E-16
   93.50000       -1.7124431E-16
   93.69000       -1.1756620E-16
   93.88000       -5.9484378E-17
   94.07000        1.2657013E-18
   94.26000        6.2833645E-17
   94.45000        1.2331090E-16
   94.64000        1.8079006E-16
   94.83000        2.3342531E-16
   95.02000        2.7949258E-16
   95.21000        3.1744804E-16
   95.40000        3.4598284E-16
   95.59000        3.6407313E-16
   95.78000        3.7102282E-16
   95.97000        3.6649782E-16
   96.16000        3.5054893E-16
   96.35000        3.2362281E-16
   96.54000        2.8655786E-16
   96.73000        2.4056517E-16
   96.92000        1.8719268E-16
   97.11000        1.2827378E-16
   97.30000        6.5860464E-17
   97.49000        2.1435755E-18
   97.68000       -6.0636991E-17
   97.87000       -1.2028814E-16
   98.06000       -1.7476051E-16
   98.25000       -2.2224141E-16
   98.44000       -2.6123801E-16
   98.63000       -2.9064535E-16
   98.82000       -3.0979449E-16
   99.01000       -3.1847658E-16
   99.20000       -3.1694128E-16
   99.39000       -3.0586754E-16
   99.58000       -2.8630902E-16
   99.77000       -2.5961682E-16
   99.96000       -2.2734446E-16
   100.1500       -1.9114172E-16
   100.3400       -1.5264487E-16
   100.5300       -1.1337168E-16
   100.7200       -7.4628844E-17
   100.9100       -3.7439508E-17
   101.1000       -2.4966257E-18
   101.2900        2.9853732E-17
   101.4800        5.9597695E-17
   101.6700        8.7008468E-17
   101.8600        1.1257434E-16
   102.0500        1.3690635E-16
   102.2400        1.6063301E-16
   102.4300        1.8429219E-16
   102.6200        2.0822943E-16
   102.8100        2.3251290E-16
   103.0000        2.5687304E-16
   103.1900        2.8067368E-16
   103.3800        3.0291852E-16
   103.5700        3.2229392E-16
   103.7600        3.3724588E-16
   103.9500        3.4608641E-16
   104.1400        3.4712109E-16
   104.3300        3.3878859E-16
   104.5200        3.1980023E-16
   104.7100        2.8926914E-16
   104.9000        2.4681772E-16
   105.0900        1.9265453E-16
   105.2800        1.2761328E-16
   105.4700        5.3150977E-17
   105.6600       -2.8696209E-17
   105.8500       -1.1539621E-16
   106.0400       -2.0403777E-16
   106.2300       -2.9147219E-16
   106.4200       -3.7447046E-16
   106.6100       -4.4988371E-16
   106.8000       -5.1479730E-16
   106.9900       -5.6666748E-16
   107.1800       -6.0343289E-16
   107.3700       -6.2359503E-16
   107.5600       -6.2626509E-16
   107.7500       -6.1117673E-16
   107.9400       -5.7866840E-16
   108.1300       -5.2963975E-16
   108.3200       -4.6548918E-16
   108.5100       -3.8803993E-16
   108.7000       -2.9946244E-16
   108.8900       -2.0219885E-16
   109.0800       -9.8894723E-17
   109.2700        7.6600258E-18
   109.4600        1.1458159E-16
   109.6500        2.1893599E-16
   109.8400        3.1778106E-16
   110.0300        4.0821260E-16
   110.2200        4.8741997E-16
   110.4100        5.5275644E-16
   110.6000        6.0182819E-16
   110.7900        6.3260105E-16
   110.9800        6.4352312E-16
   111.1700        6.3365524E-16
   111.3600        6.0280090E-16
   111.5500        5.5162158E-16
   111.7400        4.8172315E-16
   111.9300        3.9569946E-16
   112.1200        2.9711859E-16
   112.3100        1.9044237E-16
   112.5000        8.0872747E-17
   112.6900       -2.5874150E-17
   112.8800       -1.2386025E-16
   113.0700       -2.0726912E-16
   113.2600       -2.7078330E-16
   113.4500       -3.0996705E-16
   113.6400       -3.2162815E-16
   113.8300       -3.0412776E-16
   114.0200       -2.5761006E-16
   114.2100       -1.8412708E-16
   114.4000       -8.7640640E-17
   114.5900        2.6109377E-17
   114.7800        1.4986918E-16
   114.9700        2.7525781E-16
   115.1600        3.9325482E-16
   115.3500        4.9475899E-16
   115.5400        5.7118026E-16
   115.7300        6.1502289E-16
   115.9200        6.2041696E-16
   116.1100        5.8355684E-16
   116.3000        5.0301173E-16
   116.4900        3.7988284E-16
   116.6800        2.1779115E-16
   116.8700        2.2694895E-17
   117.0600       -1.9745231E-16
   117.2500       -4.3317739E-16
   117.4400       -6.7406289E-16
   117.6300       -9.0937817E-16
   117.8200       -1.1287167E-15
   118.0100       -1.3225937E-15
   118.2000       -1.4829543E-15
   118.3900       -1.6035582E-15
   118.5800       -1.6802118E-15
   118.7700       -1.7108343E-15
   118.9600       -1.6953586E-15
   119.1500       -1.6354829E-15
   119.3400       -1.5343012E-15
   119.5300       -1.3958514E-15
   119.7200       -1.2246281E-15
   119.9100       -1.0251083E-15
   120.1000       -8.0133843E-16
   120.2900       -5.5662352E-16
   120.4800       -2.9334914E-16
   120.6700       -1.2958143E-17
   120.8600        2.8391687E-16
   121.0500        5.9717416E-16
   121.2400        9.2684314E-16
   121.4300        1.2726007E-15
   121.6200        1.6332517E-15
   121.8100        2.0062236E-15
   122.0000        2.3871258E-15
   122.1900        2.7694265E-15
   122.3800        3.1442791E-15
   122.5700        3.5005303E-15
   122.7600        3.8249242E-15
   122.9500        4.1024952E-15
   123.1400        4.3171410E-15
   123.3300        4.4523355E-15
   123.5200        4.4919525E-15
   123.7100        4.4211359E-15
   123.9000        4.2271819E-15
   124.0900        3.9003635E-15
   124.2800        3.4346621E-15
   124.4700        2.8283595E-15
   124.6600        2.0844606E-15
   124.8500        1.2109310E-15
   125.0400        2.2073864E-16
   125.2300       -8.6829416E-16
   125.4200       -2.0338150E-15
   125.6100       -3.2494200E-15
   125.8000       -4.4852665E-15
   125.9900       -5.7087882E-15
   126.1800       -6.8854948E-15
   126.3700       -7.9798305E-15
   126.5600       -8.9560741E-15
   126.7500       -9.7792766E-15
   126.9400       -1.0416222E-14
   127.1300       -1.0836404E-14
   127.3200       -1.1013022E-14
   127.5100       -1.0923970E-14
   127.7000       -1.0552821E-14
   127.8900       -9.8897678E-15
   128.0800       -8.9324986E-15
   128.2700       -7.6869553E-15
   128.4600       -6.1679232E-15
   128.6500       -4.3994095E-15
   128.8400       -2.4147296E-15
   129.0300       -2.5626331E-16
   129.2200        2.0251711E-15
   129.4100        4.3713617E-15
   129.6000        6.7181656E-15
   129.7900        8.9973788E-15
   129.9800        1.1138972E-14
   130.1700        1.3073605E-14
   130.3600        1.4735339E-14
   130.5500        1.6064407E-14
   130.7400        1.7009890E-14
   130.9300        1.7532188E-14
   131.1200        1.7605092E-14
   131.3100        1.7217337E-14
   131.5000        1.6373545E-14
   131.6900        1.5094424E-14
   131.8800        1.3416230E-14
   132.0700        1.1389464E-14
   132.2600        9.0768669E-15
   132.4500        6.5507948E-15
   132.6400        3.8901318E-15
   132.8300        1.1768866E-15
   133.0200       -1.5073238E-15
   133.2100       -4.0847084E-15
   133.4000       -6.4844628E-15
   133.5900       -8.6454764E-15
   133.7800       -1.0518447E-14
   133.9700       -1.2067283E-14
   134.1600       -1.3269767E-14
   134.3500       -1.4117435E-14
   134.5400       -1.4614747E-14
   134.7300       -1.4777645E-14
   134.9200       -1.4631598E-14
   135.1100       -1.4209322E-14
   135.3000       -1.3548354E-14
   135.4900       -1.2688612E-14
   135.6800       -1.1670154E-14
   135.8700       -1.0531237E-14
   136.0600       -9.3067974E-15
   136.2500       -8.0274066E-15
   136.4400       -6.7187382E-15
   136.6300       -5.4014952E-15
   136.8200       -4.0917731E-15
   137.0100       -2.8017393E-15
   137.2000       -1.5405434E-15
   137.3900       -3.1531924E-16
   137.5800        8.6782533E-16
   137.7700        2.0029346E-15
   137.9600        3.0835296E-15
   138.1500        4.1021814E-15
   138.3400        5.0503514E-15
   138.5300        5.9184860E-15
   138.7200        6.6963299E-15
   138.9100        7.3733862E-15
   139.1000        7.9394711E-15
   139.2900        8.3852552E-15
   139.4800        8.7027468E-15
   139.6700        8.8856424E-15
   139.8600        8.9295179E-15
   140.0500        8.8318482E-15
   140.2400        8.5918711E-15
   140.4300        8.2103412E-15
   140.6200        7.6892380E-15
   140.8100        7.0315059E-15
   141.0000        6.2408956E-15
   141.1900        5.3219851E-15
   141.3800        4.2804272E-15
   141.5700        3.1234423E-15
   141.7600        1.8605447E-15
   141.9500        5.0446773E-16
   142.1400       -9.2782073E-16
   142.3300       -2.4141100E-15
   142.5200       -3.9260612E-15