  -30.00000        1.0798881E-18
  -29.81000        1.0798881E-18
  -29.62000        1.0798881E-18
  -29.43000        1.0798881E-18
  -29.24000        1.0798882E-18
  -29.05000        1.0798883E-18
  -28.86000        1.0798883E-18
  -28.67000        1.0798883E-18
  -28.48000        1.0798882E-18
  -28.29000        1.0798881E-18
  -28.10000        1.0798880E-18
  -27.91000        1.0798879E-18
  -27.72000        1.0798879E-18
  -27.53000        1.0798880E-18
  -27.34000        1.0798881E-18
  -27.15000        1.0798882E-18
  -26.96000        1.0798884E-18
  -26.77000        1.0798884E-18
  -26.58000        1.0798889E-18
  -26.39000        1.0798889E-18
  -26.20000        1.0798887E-18
  -26.01000        1.0798881E-18
  -25.82000        1.0798877E-18
  -25.63000        1.0798874E-18
  -25.44000        1.0798871E-18
  -25.25000        1.0798874E-18
  -25.06000        1.0798882E-18
  -24.87000        1.0798885E-18
  -24.68000        1.0798893E-18
  -24.49000        1.0798896E-18
  -24.30000        1.0798889E-18
  -24.11000        1.0798882E-18
  -23.92000        1.0798872E-18
  -23.73000        1.0798863E-18
  -23.54000        1.0798859E-18
  -23.35000        1.0798869E-18
  -23.16000        1.0798878E-18
  -22.97000        1.0798887E-18
  -22.78000        1.0798890E-18
  -22.59000        1.0798885E-18
  -22.40000        1.0798876E-18
  -22.21000        1.0798866E-18
  -22.02000        1.0798856E-18
  -21.83000        1.0798857E-18
  -21.64000        1.0798864E-18
  -21.45000        1.0798878E-18
  -21.26000        1.0798896E-18
  -21.07000        1.0798911E-18
  -20.88000        1.0798915E-18
  -20.69000        1.0798911E-18
  -20.50000        1.0798903E-18
  -20.31000        1.0798900E-18
  -20.12000        1.0798901E-18
  -19.93000        1.0798904E-18
  -19.74000        1.0798905E-18
  -19.55000        1.0798906E-18
  -19.36000        1.0798897E-18
  -19.17000        1.0798882E-18
  -18.98000        1.0798867E-18
  -18.79000        1.0798852E-18
  -18.60000        1.0798840E-18
  -18.41000        1.0798840E-18
  -18.22000        1.0798845E-18
  -18.03000        1.0798853E-18
  -17.84000        1.0798865E-18
  -17.65000        1.0798866E-18
  -17.46000        1.0798857E-18
  -17.27000        1.0798851E-18
  -17.08000        1.0798847E-18
  -16.89000        1.0798855E-18
  -16.70000        1.0798869E-18
  -16.51000        1.0798898E-18
  -16.32000        1.0798925E-18
  -16.13000        1.0798941E-18
  -15.94000        1.0798936E-18
  -15.75000        1.0798921E-18
  -15.56000        1.0798902E-18
  -15.37000        1.0798887E-18
  -15.18000        1.0798882E-18
  -14.99000        1.0798890E-18
  -14.80000        1.0798904E-18
  -14.61000        1.0798917E-18
  -14.42000        1.0798925E-18
  -14.23000        1.0798917E-18
  -14.04000        1.0798895E-18
  -13.85000        1.0798868E-18
  -13.66000        1.0798838E-18
  -13.47000        1.0798834E-18
  -13.28000        1.0798846E-18
  -13.09000        1.0798866E-18
  -12.90000        1.0798881E-18
  -12.71000        1.0798887E-18
  -12.52000        1.0798883E-18
  -12.33000        1.0798879E-18
  -12.14000        1.0798872E-18
  -11.95000        1.0798873E-18
  -11.76000        1.0798882E-18
  -11.57000        1.0798894E-18
  -11.38000        1.0798912E-18
  -11.19000        1.0798927E-18
  -11.00000        1.0798929E-18
  -10.81000        1.0798924E-18
  -10.62000        1.0798903E-18
  -10.43000        1.0798876E-18
  -10.24000        1.0798851E-18
  -10.05000        1.0798844E-18
  -9.860000        1.0798850E-18
  -9.670000        1.0798868E-18
  -9.480000        1.0798880E-18
  -9.290000        1.0798883E-18
  -9.100000        1.0798873E-18
  -8.910000        1.0798851E-18
  -8.720000        1.0798833E-18
  -8.530000        1.0798828E-18
  -8.340000        1.0798843E-18
  -8.150000        1.0798875E-18
  -7.960000        1.0798907E-18
  -7.770000        1.0798926E-18
  -7.580000        1.0798921E-18
  -7.390000        1.0798902E-18
  -7.200000        1.0798873E-18
  -7.010000        1.0798849E-18
  -6.820000        1.0798849E-18
  -6.630000        1.0798859E-18
  -6.440000        1.0798885E-18
  -6.250000        1.0798907E-18
  -6.060000        1.0798911E-18
  -5.870000        1.0798899E-18
  -5.680000        1.0798872E-18
  -5.490000        1.0798832E-18
  -5.300000        1.0798798E-18
  -5.110000        1.0798786E-18
  -4.920000        1.0798806E-18
  -4.730000        1.0798848E-18
  -4.540000        1.0798895E-18
  -4.350000        1.0798924E-18
  -4.160000        1.0798933E-18
  -3.970000        1.0798913E-18
  -3.780000        1.0798882E-18
  -3.590000        1.0798853E-18
  -3.400000        1.0798851E-18
  -3.210000        1.0798878E-18
  -3.020000        1.0798927E-18
  -2.830000        1.0798969E-18
  -2.640000        1.0798989E-18
  -2.450000        1.0798975E-18
  -2.260000        1.0798932E-18
  -2.070000        1.0798877E-18
  -1.880000        1.0798834E-18
  -1.690000        1.0798815E-18
  -1.500000        1.0798833E-18
  -1.310000        1.0798869E-18
  -1.120000        1.0798909E-18
 -0.9300000        1.0798934E-18
 -0.7400000        1.0798928E-18
 -0.5500000        1.0798899E-18
 -0.3600000        1.0798856E-18
 -0.1700000        1.0798821E-18
  2.0000000E-02    1.0798809E-18
  0.2100000        1.0798837E-18
  0.4000000        1.0798887E-18
  0.5900000        1.0798941E-18
  0.7800000        1.0798974E-18
  0.9700000        1.0798975E-18
   1.160000        1.0798939E-18
   1.350000        1.0798883E-18
   1.540000        1.0798840E-18
   1.730000        1.0798825E-18
   1.920000        1.0798842E-18
   2.110000        1.0798877E-18
   2.300000        1.0798913E-18
   2.490000        1.0798924E-18
   2.680000        1.0798912E-18
   2.870000        1.0798880E-18
   3.060000        1.0798840E-18
   3.250000        1.0798811E-18
   3.440000        1.0798799E-18
   3.630000        1.0798816E-18
   3.820000        1.0798853E-18
   4.010000        1.0798893E-18
   4.200000        1.0798925E-18
   4.390000        1.0798930E-18
   4.580000        1.0798910E-18
   4.770000        1.0798880E-18
   4.960000        1.0798853E-18
   5.150000        1.0798844E-18
   5.340000        1.0798845E-18
   5.530000        1.0798866E-18
   5.720000        1.0798889E-18
   5.910000        1.0798909E-18
   6.100000        1.0798916E-18
   6.290000        1.0798908E-18
   6.480000        1.0798891E-18
   6.670000        1.0798869E-18
   6.860000        1.0798856E-18
   7.050000        1.0798862E-18
   7.240000        1.0798878E-18
   7.430000        1.0798901E-18
   7.620000        1.0798916E-18
   7.810000        1.0798925E-18
   8.000000        1.0798917E-18
   8.190000        1.0798888E-18
   8.380000        1.0798856E-18
   8.570000        1.0798827E-18
   8.760000        1.0798814E-18
   8.950000        1.0798822E-18
   9.140000        1.0798843E-18
   9.330000        1.0798867E-18
   9.520000        1.0798889E-18
   9.710000        1.0798891E-18
   9.900000        1.0798870E-18
   10.09000        1.0798845E-18
   10.28000        1.0798816E-18
   10.47000        1.0798806E-18
   10.66000        1.0798817E-18
   10.85000        1.0798858E-18
   11.04000        1.0798912E-18
   11.23000        1.0798959E-18
   11.42000        1.0798985E-18
   11.61000        1.0798978E-18
   11.80000        1.0798948E-18
   11.99000        1.0798901E-18
   12.18000        1.0798867E-18
   12.37000        1.0798855E-18
   12.56000        1.0798870E-18
   12.75000        1.0798899E-18
   12.94000        1.0798923E-18
   13.13000        1.0798920E-18
   13.32000        1.0798890E-18
   13.51000        1.0798838E-18
   13.70000        1.0798784E-18
   13.89000        1.0798744E-18
   14.08000        1.0798736E-18
   14.27000        1.0798767E-18
   14.46000        1.0798817E-18
   14.65000        1.0798876E-18
   14.84000        1.0798914E-18
   15.03000        1.0798928E-18
   15.22000        1.0798917E-18
   15.41000        1.0798893E-18
   15.60000        1.0798865E-18
   15.79000        1.0798866E-18
   15.98000        1.0798896E-18
   16.17000        1.0798950E-18
   16.36000        1.0799004E-18
   16.55000        1.0799039E-18
   16.74000        1.0799039E-18
   16.93000        1.0799006E-18
   17.12000        1.0798951E-18
   17.31000        1.0798896E-18
   17.50000        1.0798854E-18
   17.69000        1.0798830E-18
   17.88000        1.0798827E-18
   18.07000        1.0798825E-18
   18.26000        1.0798826E-18
   18.45000        1.0798829E-18
   18.64000        1.0798842E-18
   18.83000        1.0798896E-18
   19.02000        1.0799002E-18
   19.21000        1.0799160E-18
   19.40000        1.0799352E-18
   19.59000        1.0799526E-18
   19.78000        1.0799605E-18
   19.97000        1.0799525E-18
   20.16000        1.0799250E-18
   20.35000        1.0798765E-18
   20.54000        1.0798108E-18
   20.73000        1.0797334E-18
   20.92000        1.0796539E-18
   21.11000        1.0795807E-18
   21.30000        1.0795259E-18
   21.49000        1.0795018E-18
   21.68000        1.0795229E-18
   21.87000        1.0796035E-18
   22.06000        1.0797544E-18
   22.25000        1.0799777E-18
   22.44000        1.0802666E-18
   22.63000        1.0805989E-18
   22.82000        1.0809396E-18
   23.01000        1.0812473E-18
   23.20000        1.0814783E-18
   23.39000        1.0815921E-18
   23.58000        1.0815565E-18
   23.77000        1.0813483E-18
   23.96000        1.0809493E-18
   24.15000        1.0803486E-18
   24.34000        1.0795409E-18
   24.53000        1.0785324E-18
   24.72000        1.0773544E-18
   24.91000        1.0760694E-18
   25.10000        1.0747843E-18
   25.29000        1.0736468E-18
   25.48000        1.0728380E-18
   25.67000        1.0725513E-18
   25.86000        1.0729642E-18
   26.05000        1.0742123E-18
   26.24000        1.0763627E-18
   26.43000        1.0793996E-18
   26.62000        1.0832144E-18
   26.81000        1.0876072E-18
   27.00000        1.0922910E-18
   27.19000        1.0969018E-18
   27.38000        1.1010122E-18
   27.57000        1.1041512E-18
   27.76000        1.1058315E-18
   27.95000        1.1055854E-18
   28.14000        1.1030191E-18
   28.33000        1.0978699E-18
   28.52000        1.0900752E-18
   28.71000        1.0798215E-18
   28.90000        1.0675737E-18
   29.09000        1.0540633E-18
   29.28000        1.0402312E-18
   29.47000        1.0271363E-18
   29.66000        1.0158543E-18
   29.85000        1.0073963E-18
   30.04000        1.0026689E-18
   30.23000        1.0024868E-18
   30.42000        1.0076058E-18
   30.61000        1.0187430E-18
   30.80000        1.0365240E-18
   30.99000        1.0613271E-18
   31.18000        1.0930429E-18
   31.37000        1.1307946E-18
   31.56000        1.1727180E-18
   31.75000        1.2158928E-18
   31.94000        1.2564749E-18
   32.13000        1.2900525E-18
   32.32000        1.3121332E-18
   32.51000        1.3186824E-18
   32.70000        1.3065925E-18
   32.89000        1.2740327E-18
   33.08000        1.2206624E-18
   33.27000        1.1477488E-18
   33.46000        1.0582309E-18
   33.65000        9.5673612E-19
   33.84000        8.4950343E-19
   34.03000        7.4413132E-19
   34.22000        6.4907343E-19
   34.41000        5.7289506E-19
   34.60000        5.2339326E-19
   34.79000        5.0677432E-19
   34.98000        5.2709003E-19
   35.17000        5.8606067E-19
   35.36000        6.8323774E-19
   35.55000        8.1632821E-19
   35.74000        9.8142002E-19
   35.93000        1.1729061E-18
   36.12000        1.3831083E-18
   36.31000        1.6018078E-18
   36.50000        1.8160510E-18
   36.69000        2.0105872E-18
   36.88000        2.1690758E-18
   37.07000        2.2758969E-18
   37.26000        2.3181067E-18
   37.45000        2.2869683E-18
   37.64000        2.1786440E-18
   37.83000        1.9939834E-18
   38.02000        1.7377326E-18
   38.21000        1.4177381E-18
   38.40000        1.0446761E-18
   38.59000        6.3249719E-19
   38.78000        1.9931708E-19
   38.97000       -2.3191937E-19
   39.16000       -6.3372788E-19
   39.35000       -9.7578206E-19
   39.54000       -1.2279108E-18
   39.73000       -1.3637224E-18
   39.92000       -1.3638960E-18
   40.11000       -1.2182660E-18
   40.30000       -9.2629939E-19
   40.49000       -4.9618894E-19
   40.68000        5.6779416E-20
   40.87000        7.1177589E-19
   41.06000        1.4433980E-18
   41.25000        2.2220015E-18
   41.44000        3.0137701E-18
   41.63000        3.7810384E-18
   41.82000        4.4832044E-18
   42.01000        5.0782272E-18
   42.20000        5.5244424E-18
   42.39000        5.7824003E-18
   42.58000        5.8167068E-18
   42.77000        5.5981475E-18
   42.96000        5.1064998E-18
   43.15000        4.3341683E-18
   43.34000        3.2901764E-18
   43.53000        2.0034782E-18
   43.72000        5.2430952E-19
   43.91000       -1.0772722E-18
   44.10000       -2.7156108E-18
   44.29000       -4.2953975E-18
   44.48000       -5.7177933E-18
   44.67000       -6.8855164E-18
   44.86000       -7.7067541E-18
   45.05000       -8.0989659E-18
   45.24000       -7.9942391E-18
   45.43000       -7.3472953E-18
   45.62000       -6.1455677E-18
   45.81000       -4.4187546E-18
   46.00000       -2.2439869E-18
   46.19000        2.5688383E-19
   46.38000        2.9291568E-18
   46.57000        5.6043972E-18
   46.76000        8.1220186E-18
   46.95000        1.0347489E-17
   47.14000        1.2182647E-17
   47.33000        1.3566731E-17
   47.52000        1.4470208E-17
   47.71000        1.4885520E-17
   47.90000        1.4818593E-17
   48.09000        1.4282627E-17
   48.28000        1.3292921E-17
   48.47000        1.1860279E-17
   48.66000        9.9818804E-18
   48.85000        7.6322284E-18
   49.04000        4.7604087E-18
   49.23000        1.3011523E-18
   49.42000       -2.7960733E-18
   49.61000       -7.5229438E-18
   49.80000       -1.2764672E-17
   49.99000       -1.8266088E-17
   50.18000       -2.3628130E-17
   50.37000       -2.8343496E-17
   50.56000       -3.1867696E-17
   50.75000       -3.3709010E-17
   50.94000       -3.3513719E-17
   51.13000       -3.1124245E-17
   51.32000       -2.6597415E-17
   51.51000       -2.0183349E-17
   51.70000       -1.2277106E-17
   51.89000       -3.3602175E-18
   52.08000        6.0535588E-18
   52.27000        1.5461791E-17
   52.46000        2.4407871E-17
   52.65000        3.2511226E-17
   52.84000        3.9494969E-17
   53.03000        4.5205404E-17
   53.22000        4.9611990E-17
   53.41000        5.2776697E-17
   53.60000        5.4790647E-17
   53.79000        5.5690371E-17
   53.98000        5.5379266E-17
   54.17000        5.3584912E-17
   54.36000        4.9875556E-17
   54.55000        4.3740831E-17
   54.74000        3.4719791E-17
   54.93000        2.2542362E-17
   55.12000        7.2455951E-18
   55.31000       -1.0765162E-17
   55.50000       -3.0721994E-17
   55.69000       -5.1560100E-17
   55.88000       -7.2024012E-17
   56.07000       -9.0792780E-17
   56.26000       -1.0660786E-16
   56.45000       -1.1839402E-16
   56.64000       -1.2536653E-16
   56.83000       -1.2711361E-16
   57.02000       -1.2363579E-16
   57.21000       -1.1532110E-16
   57.40000       -1.0284194E-16
   57.59000       -8.6979517E-17
   57.78000       -6.8408591E-17
   57.97000       -4.7497925E-17
   58.16000       -2.4190229E-17
   58.35000        1.9892060E-18
   58.54000        3.1778228E-17
   58.73000        6.5902538E-17
   58.92000        1.0473859E-16
   59.11000        1.4799071E-16
   59.30000        1.9445288E-16
   59.49000        2.4190364E-16
   59.68000        2.8715410E-16
   59.87000        3.2624509E-16
   60.06000        3.5477504E-16
   60.25000        3.6833162E-16
   60.44000        3.6299422E-16
   60.63000        3.3586058E-16
   60.82000        2.8553422E-16
   61.01000        2.1249358E-16
   61.20000        1.1926094E-16
   61.39000        1.0309748E-17
   61.58000       -1.0830765E-16
   61.77000       -2.2957264E-16
   61.96000       -3.4625746E-16
   62.15000       -4.5169535E-16
   62.34000       -5.4042830E-16
   62.53000       -6.0862541E-16
   62.72000       -6.5421611E-16
   62.91000       -6.7674216E-16
   63.10000       -6.7698129E-16
   63.29000       -6.5643126E-16
   63.48000       -6.1675878E-16
   63.67000       -5.5931888E-16
   63.86000       -4.8483774E-16
   64.05000       -3.9333177E-16
   64.24000       -2.8429528E-16
   64.43000       -1.5714194E-16
   64.62000       -1.1823285E-17
   64.81000        1.5050304E-16
   65.00000        3.2691282E-16
   65.19000        5.1240755E-16
   65.38000        6.9995658E-16
   65.57000        8.8090272E-16
   65.76000        1.0456649E-15
   65.95000        1.1846068E-15
   66.14000        1.2889215E-15
   66.33000        1.3513985E-15
   66.52000        1.3669893E-15
   66.71000        1.3331325E-15
   66.90000        1.2498365E-15
   67.09000        1.1195364E-15
   67.28000        9.4673942E-16
   67.47000        7.3749311E-16
   67.66000        4.9872591E-16
   67.85000        2.3755944E-16
   68.04000       -3.9278423E-17
   68.23000       -3.2579754E-16
   68.42000       -6.1674645E-16
   68.61000       -9.0725297E-16
   68.80000       -1.1922022E-15
   68.99000       -1.4655394E-15
   69.18000       -1.7197353E-15
   69.37000       -1.9456150E-15
   69.56000       -2.1326576E-15
   69.75000       -2.2697478E-15
   69.94000       -2.3462419E-15
   70.13000       -2.3531490E-15
   70.32000       -2.2842240E-15
   70.51000       -2.1368119E-15
   70.70000       -1.9123512E-15
   70.89000       -1.6164984E-15
   71.08000       -1.2588647E-15
   71.27000       -8.5237714E-16
   71.46000       -4.1229318E-16
   71.65000        4.5067718E-17
   71.84000        5.0374823E-16
   72.03000        9.4953844E-16
   72.22000        1.3710968E-15
   72.41000        1.7605794E-15
   72.60000        2.1136358E-15
   72.79000        2.4287463E-15
   72.98000        2.7060187E-15
   73.17000        2.9456901E-15
   73.36000        3.1466395E-15
   73.55000        3.3052219E-15
   73.74000        3.4146757E-15
   73.93000        3.4652491E-15
   74.12000        3.4450647E-15
   74.31000        3.3416202E-15
   74.50000        3.1437079E-15
   74.69000        2.8434710E-15
   74.88000        2.4382625E-15
   75.07000        1.9320057E-15
   75.26000        1.3358091E-15
   75.45000        6.6771692E-16
   75.64000       -4.8395998E-17
   75.83000       -7.8465119E-16
   76.02000       -1.5114782E-15
   76.21000       -2.2001494E-15
   76.40000       -2.8252562E-15
   76.59000       -3.3668770E-15
   76.78000       -3.8121976E-15
   76.97000       -4.1563589E-15
   77.16000       -4.4023394E-15
   77.35000       -4.5597698E-15
   77.54000       -4.6427159E-15
   77.73000       -4.6667005E-15
   77.92000       -4.6454455E-15
   78.11000       -4.5879590E-15
   78.30000       -4.4965883E-15
   78.49000       -4.3664675E-15
   78.68000       -4.1864633E-15
   78.87000       -3.9413731E-15
   79.06000       -3.6148393E-15
   79.25000       -3.1923486E-15
   79.44000       -2.6637681E-15
   79.63000       -2.0250762E-15
   79.82000       -1.2792075E-15
   80.01000       -4.3608477E-16
   80.20000        4.8801475E-16
   80.39000        1.4716583E-15
   80.58000        2.4899446E-15
   80.77000        3.5166150E-15
   80.96000        4.5263819E-15
   81.15000        5.4971121E-15
   81.34000        6.4113656E-15
   81.53000        7.2568074E-15
   81.72000        8.0252467E-15
   81.91000        8.7104133E-15
   82.10000        9.3050059E-15
   82.29000        9.7977902E-15
   82.48000        1.0171547E-14
   82.67000        1.0402398E-14
   82.86000        1.0460649E-14
   83.05000        1.0312853E-14
   83.24000        9.9246156E-15
   83.43000        9.2636207E-15
   83.62000        8.3025551E-15
   83.81000        7.0218239E-15
   84.00000        5.4120285E-15
   84.19000        3.4762101E-15
   84.38000        1.2316555E-15
   84.57000       -1.2890218E-15
   84.76000       -4.0378666E-15
   84.95000       -6.9527924E-15
   85.14000       -9.9599004E-15
   85.33000       -1.2976491E-14
   85.52000       -1.5914216E-14
   85.71000       -1.8681861E-14
   85.90000       -2.1187562E-14
   86.09000       -2.3340532E-14
   86.28000       -2.5052724E-14
   86.47000       -2.6240818E-14
   86.66000       -2.6828825E-14
   86.85000       -2.6751298E-14
   87.04000       -2.5956854E-14
   87.23000       -2.4411630E-14
   87.42000       -2.2102364E-14
   87.61000       -1.9038929E-14
   87.80000       -1.5256292E-14
   87.99000       -1.0815781E-14
   88.18000       -5.8053792E-15
   88.37000       -3.3855875E-16
   88.56000        5.4488622E-15
   88.75000        1.1404101E-14
   88.94000        1.7364763E-14
   89.13000        2.3167384E-14
   89.32000        2.8655900E-14
   89.51000        3.3688764E-14
   89.70000        3.8143832E-14
   89.89000        4.1920711E-14
   90.08000        4.4940905E-14
   90.27000        4.7146494E-14
   90.46000        4.8498203E-14
   90.65000        4.8973402E-14
   90.84000        4.8564200E-14
   91.03000        4.7275701E-14
   91.22000        4.5124295E-14
   91.41000        4.2136233E-14
   91.60000        3.8347031E-14
   91.79000        3.3802202E-14
   91.98000        2.8559681E-14
   92.17000        2.2693603E-14
   92.36000        1.6298440E-14
   92.55000        9.4919393E-15
   92.74000        2.4154470E-15
   92.93000       -4.7693262E-15
   93.12000       -1.1887083E-14
   93.31000       -1.8758339E-14
   93.50000       -2.5209982E-14
   93.69000       -3.1085482E-14
   93.88000       -3.6253600E-14
   94.07000       -4.0615094E-14
   94.26000       -4.4107201E-14
   94.45000       -4.6705905E-14
   94.64000       -4.8425856E-14
   94.83000       -4.9317714E-14
   95.02000       -4.9462635E-14
   95.21000       -4.8963946E-14
   95.40000       -4.7936715E-14
   95.59000       -4.6496522E-14
   95.78000       -4.4749133E-14
   95.97000       -4.2782760E-14
   96.16000       -4.0664121E-14
   96.35000       -3.8438582E-14
   96.54000       -3.6133799E-14
   96.73000       -3.3765589E-14
   96.92000       -3.1344549E-14
   97.11000       -2.8882055E-14
   97.30000       -2.6394777E-14
   97.49000       -2.3907097E-14
   97.68000       -2.1451292E-14
   97.87000       -1.9065350E-14
   98.06000       -1.6788635E-14
   98.25000       -1.4655769E-14
   98.44000       -1.2689484E-14
   98.63000       -1.0893548E-14
   98.82000       -9.2469960E-15
   99.01000       -7.7007009E-15
   99.20000       -6.1770200E-15
   99.39000       -4.5726265E-15
   99.58000       -2.7643678E-15
   99.77000       -6.1766638E-16
   99.96000        2.0030639E-15
   100.1500        5.2226235E-15
   100.3400        9.1426754E-15
   100.5300        1.3829941E-14
   100.7200        1.9306258E-14
   100.9100        2.5541979E-14
   101.1000        3.2453732E-14
   101.2900        3.9906897E-14
   101.4800        4.7722063E-14
   101.6700        5.5683939E-14
   101.8600        6.3550612E-14
   102.0500        7.1061551E-14
   102.2400        7.7943430E-14
   102.4300        8.3914219E-14
   102.6200        8.8686796E-14
   102.8100        9.1973629E-14
   103.0000        9.3493315E-14
   103.1900        9.2979071E-14
   103.3800        9.0187725E-14
   103.5700        8.4907992E-14
   103.7600        7.6966516E-14
   103.9500        6.6231607E-14
   104.1400        5.2615003E-14
   104.3300        3.6072768E-14
   104.5200        1.6605607E-14
   104.7100       -5.7417928E-15
   104.9000       -3.0883892E-14
   105.0900       -5.8701667E-14
   105.2800       -8.9055418E-14
   105.4700       -1.2180282E-13
   105.6600       -1.5682025E-13
   105.8500       -1.9402462E-13
   106.0400       -2.3339252E-13
   106.2300       -2.7497395E-13
   106.4200       -3.1890023E-13
   106.6100       -3.6538700E-13
   106.8000       -4.1473362E-13
   106.9900       -4.6732117E-13
   107.1800       -5.2360980E-13
   107.3700       -5.8413642E-13
   107.5600       -6.4951131E-13
   107.7500       -7.2041434E-13
   107.9400       -7.9759089E-13
   108.1300       -8.8184890E-13
   108.3200       -9.7405775E-13
   108.5100       -1.0751488E-12
   108.7000       -1.1861171E-12
   108.8900       -1.3080216E-12
   109.0800       -1.4419820E-12
   109.2700       -1.5891681E-12
   109.4600       -1.7507858E-12
   109.6500       -1.9280545E-12
   109.8400       -2.1221846E-12
   110.0300       -2.3343519E-12
   110.2200       -2.5656736E-12
   110.4100       -2.8171857E-12
   110.6000       -3.0898238E-12
   110.7900       -3.3844054E-12
   110.9800       -3.7016171E-12
   111.1700       -4.0420128E-12
   111.3600       -4.4060137E-12
   111.5500       -4.7939291E-12
   111.7400       -5.2059754E-12
   111.9300       -5.6423056E-12
   112.1200       -6.1030360E-12
   112.3100       -6.5882677E-12
   112.5000       -7.0981029E-12
   112.6900       -7.6326480E-12
   112.8800       -8.1920174E-12
   113.0700       -8.7763330E-12
   113.2600       -9.3857240E-12
   113.4500       -1.0020326E-11
   113.6400       -1.0680285E-11
   113.8300       -1.1365752E-11
   114.0200       -1.2076886E-11
   114.2100       -1.2813843E-11
   114.4000       -1.3576794E-11
   114.5900       -1.4365933E-11
   114.7800       -1.5181509E-11
   114.9700       -1.6023863E-11
   115.1600       -1.6893457E-11
   115.3500       -1.7790918E-11
   115.5400       -1.8717033E-11
   115.7300       -1.9672760E-11
   115.9200       -2.0659195E-11
   116.1100       -2.1677547E-11
   116.3000       -2.2729102E-11
   116.4900       -2.3815193E-11
   116.6800       -2.4937176E-11
   116.8700       -2.6096413E-11
   117.0600       -2.7294242E-11
   117.2500       -2.8531958E-11
   117.4400       -2.9810775E-11
   117.6300       -3.1131802E-11
   117.8200       -3.2496016E-11
   118.0100       -3.3904268E-11
   118.2000       -3.5357255E-11
   118.3900       -3.6855550E-11
   118.5800       -3.8399589E-11
   118.7700       -3.9989689E-11
   118.9600       -4.1626032E-11
   119.1500       -4.3308648E-11
   119.3400       -4.5037415E-11
   119.5300       -4.6812030E-11
   119.7200       -4.8632032E-11
   119.9100       -5.0496787E-11
   120.1000       -5.2405542E-11
   120.2900       -5.4357407E-11
   120.4800       -5.6351371E-11
   120.6700       -5.8386303E-11
   120.8600       -6.0460949E-11
   121.0500       -6.2573939E-11
   121.2400       -6.4723782E-11
   121.4300       -6.6908881E-11
   121.6200       -6.9127565E-11
   121.8100       -7.1378112E-11
   122.0000       -7.3658767E-11
   122.1900       -7.5967774E-11
   122.3800       -7.8303364E-11
   122.5700       -8.0663788E-11
   122.7600       -8.3047312E-11
   122.9500       -8.5452243E-11
   123.1400       -8.7876935E-11
   123.3300       -9.0319800E-11
   123.5200       -9.2779374E-11
   123.7100       -9.5254277E-11
   123.9000       -9.7743251E-11
   124.0900       -1.0024515E-10
   124.2800       -1.0275891E-10
   124.4700       -1.0528358E-10
   124.6600       -1.0781824E-10
   124.8500       -1.1036203E-10
   125.0400       -1.1291411E-10
   125.2300       -1.1547361E-10
   125.4200       -1.1803963E-10
   125.6100       -1.2061116E-10
   125.8000       -1.2318706E-10
   125.9900       -1.2576605E-10
   126.1800       -1.2834669E-10
   126.3700       -1.3092741E-10
   126.5600       -1.3350647E-10
   126.7500       -1.3608203E-10
   126.9400       -1.3865217E-10
   127.1300       -1.4121483E-10
   127.3200       -1.4376793E-10
   127.5100       -1.4630931E-10
   127.7000       -1.4883686E-10
   127.8900       -1.5134838E-10
   128.0800       -1.5384173E-10
   128.2700       -1.5631470E-10
   128.4600       -1.5876503E-10
   128.6500       -1.6119042E-10
   128.8400       -1.6358846E-10
   129.0300       -1.6595664E-10
   129.2200       -1.6829237E-10
   129.4100       -1.7059296E-10
   129.6000       -1.7285569E-10
   129.7900       -1.7507773E-10
   129.9800       -1.7725621E-10
   130.1700       -1.7938818E-10
   130.3600       -1.8147069E-10
   130.5500       -1.8350076E-10
   130.7400       -1.8547545E-10
   130.9300       -1.8739192E-10
   131.1200       -1.8924742E-10
   131.3100       -1.9103936E-10
   131.5000       -1.9276533E-10
   131.6900       -1.9442305E-10
   131.8800       -1.9601043E-10
   132.0700       -1.9752558E-10
   132.2600       -1.9896676E-10
   132.4500       -2.0033250E-10
   132.6400       -2.0162148E-10
   132.8300       -2.0283263E-10
   133.0200       -2.0396504E-10
   133.2100       -2.0501802E-10
   133.4000       -2.0599090E-10
   133.5900       -2.0688312E-10
   133.7800       -2.0769418E-10
   133.9700       -2.0842354E-10
   134.1600       -2.0907065E-10
   134.3500       -2.0963487E-10
   134.5400       -2.1011543E-10
   134.7300       -2.1051143E-10
   134.9200       -2.1082168E-10
   135.1100       -2.1104476E-10
   135.3000       -2.1117895E-10
   135.4900       -2.1122222E-10
   135.6800       -2.1117232E-10
   135.8700       -2.1102665E-10
   136.0600       -2.1078247E-10
   136.2500       -2.1043672E-10
   136.4400       -2.0998614E-10
   136.6300       -2.0942723E-10
   136.8200       -2.0875628E-10
   137.0100       -2.0796936E-10
   137.2000       -2.0706251E-10
   137.3900       -2.0603164E-10
   137.5800       -2.0487274E-10
   137.7700       -2.0358189E-10
   137.9600       -2.0215528E-10
   138.1500       -2.0058934E-10
   138.3400       -1.9888070E-10
   138.5300       -1.9702630E-10
   138.7200       -1.9502341E-10
   138.9100       -1.9286972E-10
   139.1000       -1.9056330E-10
   139.2900       -1.8810266E-10
   139.4800       -1.8548663E-10
   139.6700       -1.8271432E-10
   139.8600       -1.7978502E-10
   140.0500       -1.7669825E-10
   140.2400       -1.7345374E-10
   140.4300       -1.7005146E-10
   140.6200       -1.6649165E-10
   140.8100       -1.6277489E-10
   141.0000       -1.5890209E-10
   141.1900       -1.5487443E-10
   141.3800       -1.5069350E-10
   141.5700       -1.4636115E-10
   141.7600       -1.4187956E-10
   141.9500       -1.3725125E-10
   142.1400       -1.3247900E-10
   142.3300       -1.2756587E-10
   142.5200       -1.2251505E-10