  -30.00000        8.3848419E-19
  -29.81000        8.3848419E-19
  -29.62000        8.3848419E-19
  -29.43000        8.3848419E-19
  -29.24000        8.3848450E-19
  -29.05000        8.3848440E-19
  -28.86000        8.3848414E-19
  -28.67000        8.3848398E-19
  -28.48000        8.3848362E-19
  -28.29000        8.3848367E-19
  -28.10000        8.3848435E-19
  -27.91000        8.3848497E-19
  -27.72000        8.3848538E-19
  -27.53000        8.3848471E-19
  -27.34000        8.3848357E-19
  -27.15000        8.3848264E-19
  -26.96000        8.3848331E-19
  -26.77000        8.3848424E-19
  -26.58000        8.3848522E-19
  -26.39000        8.3848538E-19
  -26.20000        8.3848429E-19
  -26.01000        8.3848238E-19
  -25.82000        8.3848186E-19
  -25.63000        8.3848279E-19
  -25.44000        8.3848512E-19
  -25.25000        8.3848688E-19
  -25.06000        8.3848688E-19
  -24.87000        8.3848435E-19
  -24.68000        8.3848145E-19
  -24.49000        8.3848176E-19
  -24.30000        8.3848367E-19
  -24.11000        8.3848569E-19
  -23.92000        8.3848553E-19
  -23.73000        8.3848305E-19
  -23.54000        8.3847985E-19
  -23.35000        8.3847928E-19
  -23.16000        8.3848233E-19
  -22.97000        8.3848590E-19
  -22.78000        8.3848869E-19
  -22.59000        8.3848827E-19
  -22.40000        8.3848543E-19
  -22.21000        8.3848217E-19
  -22.02000        8.3848161E-19
  -21.83000        8.3848362E-19
  -21.64000        8.3848564E-19
  -21.45000        8.3848590E-19
  -21.26000        8.3848331E-19
  -21.07000        8.3848073E-19
  -20.88000        8.3848083E-19
  -20.69000        8.3848445E-19
  -20.50000        8.3848879E-19
  -20.31000        8.3848936E-19
  -20.12000        8.3848590E-19
  -19.93000        8.3848161E-19
  -19.74000        8.3848083E-19
  -19.55000        8.3848455E-19
  -19.36000        8.3848895E-19
  -19.17000        8.3849065E-19
  -18.98000        8.3848765E-19
  -18.79000        8.3848290E-19
  -18.60000        8.3848083E-19
  -18.41000        8.3848326E-19
  -18.22000        8.3848734E-19
  -18.03000        8.3848848E-19
  -17.84000        8.3848533E-19
  -17.65000        8.3848135E-19
  -17.46000        8.3847938E-19
  -17.27000        8.3848171E-19
  -17.08000        8.3848590E-19
  -16.89000        8.3848807E-19
  -16.70000        8.3848657E-19
  -16.51000        8.3848248E-19
  -16.32000        8.3847907E-19
  -16.13000        8.3848062E-19
  -15.94000        8.3848507E-19
  -15.75000        8.3848869E-19
  -15.56000        8.3848755E-19
  -15.37000        8.3848300E-19
  -15.18000        8.3848005E-19
  -14.99000        8.3848269E-19
  -14.80000        8.3848719E-19
  -14.61000        8.3849014E-19
  -14.42000        8.3848817E-19
  -14.23000        8.3848373E-19
  -14.04000        8.3848052E-19
  -13.85000        8.3848192E-19
  -13.66000        8.3848626E-19
  -13.47000        8.3848967E-19
  -13.28000        8.3848740E-19
  -13.09000        8.3848171E-19
  -12.90000        8.3847773E-19
  -12.71000        8.3847809E-19
  -12.52000        8.3848186E-19
  -12.33000        8.3848466E-19
  -12.14000        8.3848352E-19
  -11.95000        8.3847933E-19
  -11.76000        8.3847566E-19
  -11.57000        8.3847721E-19
  -11.38000        8.3848352E-19
  -11.19000        8.3848926E-19
  -11.00000        8.3848993E-19
  -10.81000        8.3848647E-19
  -10.62000        8.3848274E-19
  -10.43000        8.3848295E-19
  -10.24000        8.3848709E-19
  -10.05000        8.3849148E-19
  -9.860000        8.3849086E-19
  -9.670000        8.3848481E-19
  -9.480000        8.3847830E-19
  -9.290000        8.3847690E-19
  -9.100000        8.3848130E-19
  -8.910000        8.3848626E-19
  -8.720000        8.3848688E-19
  -8.530000        8.3848248E-19
  -8.340000        8.3847711E-19
  -8.150000        8.3847644E-19
  -7.960000        8.3848119E-19
  -7.770000        8.3848755E-19
  -7.580000        8.3848993E-19
  -7.390000        8.3848631E-19
  -7.200000        8.3848093E-19
  -7.010000        8.3847974E-19
  -6.820000        8.3848476E-19
  -6.630000        8.3849195E-19
  -6.440000        8.3849453E-19
  -6.250000        8.3849081E-19
  -6.060000        8.3848445E-19
  -5.870000        8.3848155E-19
  -5.680000        8.3848460E-19
  -5.490000        8.3848998E-19
  -5.300000        8.3849200E-19
  -5.110000        8.3848703E-19
  -4.920000        8.3847856E-19
  -4.730000        8.3847277E-19
  -4.540000        8.3847452E-19
  -4.350000        8.3848047E-19
  -4.160000        8.3848481E-19
  -3.970000        8.3848367E-19
  -3.780000        8.3847799E-19
  -3.590000        8.3847447E-19
  -3.400000        8.3847700E-19
  -3.210000        8.3848429E-19
  -3.020000        8.3849231E-19
  -2.830000        8.3849308E-19
  -2.640000        8.3848838E-19
  -2.450000        8.3848435E-19
  -2.260000        8.3848522E-19
  -2.070000        8.3849029E-19
  -1.880000        8.3849463E-19
  -1.690000        8.3849375E-19
  -1.500000        8.3848719E-19
  -1.310000        8.3848093E-19
  -1.120000        8.3847969E-19
 -0.9300000        8.3848424E-19
 -0.7400000        8.3848936E-19
 -0.5500000        8.3848946E-19
 -0.3600000        8.3848507E-19
 -0.1700000        8.3848042E-19
  2.0000000E-02    8.3847974E-19
  0.2100000        8.3848435E-19
  0.4000000        8.3848983E-19
  0.5900000        8.3849138E-19
  0.7800000        8.3848641E-19
  0.9700000        8.3847974E-19
   1.160000        8.3847856E-19
   1.350000        8.3848279E-19
   1.540000        8.3848791E-19
   1.730000        8.3848734E-19
   1.920000        8.3848073E-19
   2.110000        8.3847308E-19
   2.300000        8.3847189E-19
   2.490000        8.3847778E-19
   2.680000        8.3848600E-19
   2.870000        8.3849003E-19
   3.060000        8.3848843E-19
   3.250000        8.3848502E-19
   3.440000        8.3848610E-19
   3.630000        8.3849210E-19
   3.820000        8.3849856E-19
   4.010000        8.3849830E-19
   4.200000        8.3849019E-19
   4.390000        8.3847892E-19
   4.580000        8.3847194E-19
   4.770000        8.3847426E-19
   4.960000        8.3848062E-19
   5.150000        8.3848409E-19
   5.340000        8.3848176E-19
   5.530000        8.3847633E-19
   5.720000        8.3847416E-19
   5.910000        8.3848016E-19
   6.100000        8.3848972E-19
   6.290000        8.3849644E-19
   6.480000        8.3849510E-19
   6.670000        8.3848807E-19
   6.860000        8.3848321E-19
   7.050000        8.3848528E-19
   7.240000        8.3849174E-19
   7.430000        8.3849572E-19
   7.620000        8.3849210E-19
   7.810000        8.3848093E-19
   8.000000        8.3847163E-19
   8.190000        8.3847003E-19
   8.380000        8.3847607E-19
   8.570000        8.3848228E-19
   8.760000        8.3848202E-19
   8.950000        8.3847623E-19
   9.140000        8.3847173E-19
   9.330000        8.3847488E-19
   9.520000        8.3848316E-19
   9.710000        8.3849076E-19
   9.900000        8.3849081E-19
   10.09000        8.3848435E-19
   10.28000        8.3847835E-19
   10.47000        8.3847980E-19
   10.66000        8.3848729E-19
   10.85000        8.3849386E-19
   11.04000        8.3849262E-19
   11.23000        8.3848378E-19
   11.42000        8.3847468E-19
   11.61000        8.3847271E-19
   11.80000        8.3847949E-19
   11.99000        8.3848734E-19
   12.18000        8.3848709E-19
   12.37000        8.3847861E-19
   12.56000        8.3847023E-19
   12.75000        8.3846982E-19
   12.94000        8.3847902E-19
   13.13000        8.3849122E-19
   13.32000        8.3849655E-19
   13.51000        8.3849081E-19
   13.70000        8.3848005E-19
   13.89000        8.3847540E-19
   14.08000        8.3848057E-19
   14.27000        8.3849148E-19
   14.46000        8.3849748E-19
   14.65000        8.3849277E-19
   14.84000        8.3848243E-19
   15.03000        8.3847726E-19
   15.22000        8.3848223E-19
   15.41000        8.3849386E-19
   15.60000        8.3850130E-19
   15.79000        8.3849825E-19
   15.98000        8.3848714E-19
   16.17000        8.3847695E-19
   16.36000        8.3847669E-19
   16.55000        8.3848481E-19
   16.74000        8.3849272E-19
   16.93000        8.3849133E-19
   17.12000        8.3848145E-19
   17.31000        8.3847256E-19
   17.50000        8.3847189E-19
   17.69000        8.3848083E-19
   17.88000        8.3848993E-19
   18.07000        8.3849158E-19
   18.26000        8.3848445E-19
   18.45000        8.3847669E-19
   18.64000        8.3847711E-19
   18.83000        8.3848605E-19
   19.02000        8.3849515E-19
   19.21000        8.3849536E-19
   19.40000        8.3848672E-19
   19.59000        8.3847649E-19
   19.78000        8.3847344E-19
   19.97000        8.3847990E-19
   20.16000        8.3848915E-19
   20.35000        8.3849215E-19
   20.54000        8.3848626E-19
   20.73000        8.3847907E-19
   20.92000        8.3847685E-19
   21.11000        8.3848238E-19
   21.30000        8.3849112E-19
   21.49000        8.3849257E-19
   21.68000        8.3848517E-19
   21.87000        8.3847514E-19
   22.06000        8.3847085E-19
   22.25000        8.3847695E-19
   22.44000        8.3848869E-19
   22.63000        8.3849660E-19
   22.82000        8.3849531E-19
   23.01000        8.3848962E-19
   23.20000        8.3848652E-19
   23.39000        8.3849060E-19
   23.58000        8.3849665E-19
   23.77000        8.3849768E-19
   23.96000        8.3848910E-19
   24.15000        8.3847669E-19
   24.34000        8.3846775E-19
   24.53000        8.3846796E-19
   24.72000        8.3847437E-19
   24.91000        8.3847907E-19
   25.10000        8.3847731E-19
   25.29000        8.3847189E-19
   25.48000        8.3846946E-19
   25.67000        8.3847473E-19
   25.86000        8.3848564E-19
   26.05000        8.3849396E-19
   26.24000        8.3849489E-19
   26.43000        8.3849081E-19
   26.62000        8.3848884E-19
   26.81000        8.3849164E-19
   27.00000        8.3849774E-19
   27.19000        8.3849913E-19
   27.38000        8.3849174E-19
   27.57000        8.3847876E-19
   27.76000        8.3846982E-19
   27.95000        8.3847023E-19
   28.14000        8.3847902E-19
   28.33000        8.3848745E-19
   28.52000        8.3848859E-19
   28.71000        8.3848233E-19
   28.90000        8.3847711E-19
   29.09000        8.3847907E-19
   29.28000        8.3848698E-19
   29.47000        8.3849381E-19
   29.66000        8.3849210E-19
   29.85000        8.3848440E-19
   30.04000        8.3847747E-19
   30.23000        8.3847840E-19
   30.42000        8.3848641E-19
   30.61000        8.3849324E-19
   30.80000        8.3849241E-19
   30.99000        8.3848435E-19
   31.18000        8.3847437E-19
   31.37000        8.3847163E-19
   31.56000        8.3847711E-19
   31.75000        8.3848414E-19
   31.94000        8.3848719E-19
   32.13000        8.3848388E-19
   32.32000        8.3847954E-19
   32.51000        8.3847964E-19
   32.70000        8.3848600E-19
   32.89000        8.3849262E-19
   33.08000        8.3849355E-19
   33.27000        8.3848543E-19
   33.46000        8.3847597E-19
   33.65000        8.3847106E-19
   33.84000        8.3847318E-19
   34.03000        8.3847995E-19
   34.22000        8.3848378E-19
   34.41000        8.3848088E-19
   34.60000        8.3847473E-19
   34.79000        8.3847251E-19
   34.98000        8.3847680E-19
   35.17000        8.3848378E-19
   35.36000        8.3848714E-19
   35.55000        8.3848491E-19
   35.74000        8.3847959E-19
   35.93000        8.3847762E-19
   36.12000        8.3848290E-19
   36.31000        8.3849226E-19
   36.50000        8.3849675E-19
   36.69000        8.3849236E-19
   36.88000        8.3848398E-19
   37.07000        8.3847830E-19
   37.26000        8.3847923E-19
   37.45000        8.3848507E-19
   37.64000        8.3848905E-19
   37.83000        8.3848802E-19
   38.02000        8.3848460E-19
   38.21000        8.3848336E-19
   38.40000        8.3848879E-19
   38.59000        8.3849836E-19
   38.78000        8.3850503E-19
   38.97000        8.3850404E-19
   39.16000        8.3849686E-19
   39.35000        8.3849019E-19
   39.54000        8.3848910E-19
   39.73000        8.3849334E-19
   39.92000        8.3849644E-19
   40.11000        8.3849360E-19
   40.30000        8.3848357E-19
   40.49000        8.3847256E-19
   40.68000        8.3846806E-19
   40.87000        8.3847127E-19
   41.06000        8.3847561E-19
   41.25000        8.3847540E-19
   41.44000        8.3847101E-19
   41.63000        8.3846765E-19
   41.82000        8.3847054E-19
   42.01000        8.3848099E-19
   42.20000        8.3849257E-19
   42.39000        8.3849805E-19
   42.58000        8.3849624E-19
   42.77000        8.3849112E-19
   42.96000        8.3848874E-19
   43.15000        8.3849246E-19
   43.34000        8.3849820E-19
   43.53000        8.3850011E-19
   43.72000        8.3849593E-19
   43.91000        8.3848833E-19
   44.10000        8.3848435E-19
   44.29000        8.3848600E-19
   44.48000        8.3849065E-19
   44.67000        8.3849179E-19
   44.86000        8.3848652E-19
   45.05000        8.3847819E-19
   45.24000        8.3847349E-19
   45.43000        8.3847644E-19
   45.62000        8.3848435E-19
   45.81000        8.3849153E-19
   46.00000        8.3849184E-19
   46.19000        8.3848641E-19
   46.38000        8.3848099E-19
   46.57000        8.3848011E-19
   46.76000        8.3848279E-19
   46.95000        8.3848455E-19
   47.14000        8.3848031E-19
   47.33000        8.3847075E-19
   47.52000        8.3846330E-19
   47.71000        8.3846299E-19
   47.90000        8.3846961E-19
   48.09000        8.3847700E-19
   48.28000        8.3847954E-19
   48.47000        8.3847778E-19
   48.66000        8.3847566E-19
   48.85000        8.3847757E-19
   49.04000        8.3848414E-19
   49.23000        8.3849158E-19
   49.42000        8.3849303E-19
   49.61000        8.3849076E-19
   49.80000        8.3848827E-19
   49.99000        8.3848843E-19
   50.18000        8.3849200E-19
   50.37000        8.3849644E-19
   50.56000        8.3849722E-19
   50.75000        8.3849344E-19
   50.94000        8.3848729E-19
   51.13000        8.3848378E-19
   51.32000        8.3848517E-19
   51.51000        8.3849034E-19
   51.70000        8.3849319E-19
   51.89000        8.3849148E-19
   52.08000        8.3848719E-19
   52.27000        8.3848553E-19
   52.46000        8.3848822E-19
   52.65000        8.3849391E-19
   52.84000        8.3849675E-19
   53.03000        8.3849381E-19
   53.22000        8.3848755E-19
   53.41000        8.3848269E-19
   53.60000        8.3848264E-19
   53.79000        8.3848667E-19
   53.98000        8.3848926E-19
   54.17000        8.3848585E-19
   54.36000        8.3847804E-19
   54.55000        8.3847101E-19
   54.74000        8.3847085E-19
   54.93000        8.3847644E-19
   55.12000        8.3848331E-19
   55.31000        8.3848652E-19
   55.50000        8.3848543E-19
   55.69000        8.3848429E-19
   55.88000        8.3848564E-19
   56.07000        8.3849055E-19
   56.26000        8.3849484E-19
   56.45000        8.3849298E-19
   56.64000        8.3848574E-19
   56.83000        8.3847721E-19
   57.02000        8.3847390E-19
   57.21000        8.3847638E-19
   57.40000        8.3848202E-19
   57.59000        8.3848543E-19
   57.78000        8.3848435E-19
   57.97000        8.3848150E-19
   58.16000        8.3848197E-19
   58.35000        8.3848595E-19
   58.54000        8.3848926E-19
   58.73000        8.3848776E-19
   58.92000        8.3848197E-19
   59.11000        8.3847385E-19
   59.30000        8.3847003E-19
   59.49000        8.3847132E-19
   59.68000        8.3847364E-19
   59.87000        8.3847447E-19
   60.06000        8.3847287E-19
   60.25000        8.3846997E-19
   60.44000        8.3847065E-19
   60.63000        8.3847638E-19
   60.82000        8.3848497E-19
   61.01000        8.3849050E-19
   61.20000        8.3849055E-19
   61.39000        8.3848688E-19
   61.58000        8.3848311E-19
   61.77000        8.3848202E-19
   61.96000        8.3848248E-19
   62.15000        8.3848109E-19
   62.34000        8.3847587E-19
   62.53000        8.3846997E-19
   62.72000        8.3846604E-19
   62.91000        8.3846785E-19
   63.10000        8.3847390E-19
   63.29000        8.3847902E-19
   63.48000        8.3848005E-19
   63.67000        8.3847737E-19
   63.86000        8.3847525E-19
   64.05000        8.3847638E-19
   64.24000        8.3848057E-19
   64.43000        8.3848404E-19
   64.62000        8.3848331E-19
   64.81000        8.3847907E-19
   65.00000        8.3847535E-19
   65.19000        8.3847561E-19
   65.38000        8.3847928E-19
   65.57000        8.3848223E-19
   65.76000        8.3848057E-19
   65.95000        8.3847478E-19
   66.14000        8.3846899E-19
   66.33000        8.3846847E-19
   66.52000        8.3847297E-19
   66.71000        8.3848068E-19
   66.90000        8.3848688E-19
   67.09000        8.3849081E-19
   67.28000        8.3849386E-19
   67.47000        8.3849825E-19
   67.66000        8.3850353E-19
   67.85000        8.3850787E-19
   68.04000        8.3850854E-19
   68.23000        8.3850342E-19
   68.42000        8.3849448E-19
   68.61000        8.3848827E-19
   68.80000        8.3848569E-19
   68.99000        8.3848497E-19
   69.18000        8.3848362E-19
   69.37000        8.3847980E-19
   69.56000        8.3847592E-19
   69.75000        8.3847669E-19
   69.94000        8.3848383E-19
   70.13000        8.3849432E-19
   70.32000        8.3850254E-19
   70.51000        8.3850461E-19
   70.70000        8.3850337E-19
   70.89000        8.3850161E-19
   71.08000        8.3850130E-19
   71.27000        8.3850161E-19
   71.46000        8.3849913E-19
   71.65000        8.3849101E-19
   71.84000        8.3848016E-19
   72.03000        8.3847101E-19
   72.22000        8.3846858E-19
   72.41000        8.3847189E-19
   72.60000        8.3847576E-19
   72.79000        8.3847597E-19
   72.98000        8.3847395E-19
   73.17000        8.3847318E-19
   73.36000        8.3847592E-19
   73.55000        8.3848212E-19
   73.74000        8.3848802E-19
   73.93000        8.3849008E-19
   74.12000        8.3848698E-19
   74.31000        8.3848140E-19
   74.50000        8.3847840E-19
   74.69000        8.3847964E-19
   74.88000        8.3848285E-19
   75.07000        8.3848321E-19
   75.26000        8.3847964E-19
   75.45000        8.3847494E-19
   75.64000        8.3847359E-19
   75.83000        8.3847633E-19
   76.02000        8.3848104E-19
   76.21000        8.3848383E-19
   76.40000        8.3848393E-19
   76.59000        8.3848321E-19
   76.78000        8.3848290E-19
   76.97000        8.3848538E-19
   77.16000        8.3848936E-19
   77.35000        8.3849019E-19
   77.54000        8.3848585E-19
   77.73000        8.3847850E-19
   77.92000        8.3847277E-19
   78.11000        8.3847059E-19
   78.30000        8.3847251E-19
   78.49000        8.3847473E-19
   78.68000        8.3847442E-19
   78.87000        8.3847292E-19
   79.06000        8.3847447E-19
   79.25000        8.3848083E-19
   79.44000        8.3848988E-19
   79.63000        8.3849748E-19
   79.82000        8.3850161E-19
   80.01000        8.3850104E-19
   80.20000        8.3849846E-19
   80.39000        8.3849665E-19
   80.58000        8.3849613E-19
   80.77000        8.3849370E-19
   80.96000        8.3848750E-19
   81.15000        8.3847654E-19
   81.34000        8.3846687E-19
   81.53000        8.3846367E-19
   81.72000        8.3846760E-19
   81.91000        8.3847514E-19
   82.10000        8.3848057E-19
   82.29000        8.3848279E-19
   82.48000        8.3848404E-19
   82.67000        8.3848910E-19
   82.86000        8.3849872E-19
   83.05000        8.3850989E-19
   83.24000        8.3851728E-19
   83.43000        8.3851852E-19
   83.62000        8.3851573E-19
   83.81000        8.3851309E-19
   84.00000        8.3851304E-19
   84.19000        8.3851428E-19
   84.38000        8.3851314E-19
   84.57000        8.3850539E-19
   84.76000        8.3849334E-19
   84.95000        8.3848228E-19
   85.14000        8.3847731E-19
   85.33000        8.3847830E-19
   85.52000        8.3848181E-19
   85.71000        8.3848326E-19
   85.90000        8.3848166E-19
   86.09000        8.3847840E-19
   86.28000        8.3847752E-19
   86.47000        8.3848135E-19
   86.66000        8.3848528E-19
   86.85000        8.3848404E-19
   87.04000        8.3847773E-19
   87.23000        8.3846873E-19
   87.42000        8.3846367E-19
   87.61000        8.3846341E-19
   87.80000        8.3846620E-19
   87.99000        8.3846687E-19
   88.18000        8.3846403E-19
   88.37000        8.3846118E-19
   88.56000        8.3846191E-19
   88.75000        8.3846806E-19
   88.94000        8.3847571E-19
   89.13000        8.3847990E-19
   89.32000        8.3848119E-19
   89.51000        8.3848047E-19
   89.70000        8.3848186E-19
   89.89000        8.3848709E-19
   90.08000        8.3849241E-19
   90.27000        8.3849360E-19
   90.46000        8.3848791E-19
   90.65000        8.3847881E-19
   90.84000        8.3847313E-19
   91.03000        8.3847395E-19
   91.22000        8.3847943E-19
   91.41000        8.3848435E-19
   91.60000        8.3848528E-19
   91.79000        8.3848429E-19
   91.98000        8.3848683E-19
   92.17000        8.3849391E-19
   92.36000        8.3850446E-19
   92.55000        8.3851087E-19
   92.74000        8.3851030E-19
   92.93000        8.3850446E-19
   93.12000        8.3850042E-19
   93.31000        8.3850104E-19
   93.50000        8.3850415E-19
   93.69000        8.3850440E-19
   93.88000        8.3849856E-19
   94.07000        8.3848657E-19
   94.26000        8.3847494E-19
   94.45000        8.3846832E-19
   94.64000        8.3846630E-19
   94.83000        8.3846449E-19
   95.02000        8.3846144E-19
   95.21000        8.3845715E-19
   95.40000        8.3845741E-19
   95.59000        8.3846408E-19
   95.78000        8.3847545E-19
   95.97000        8.3848569E-19
   96.16000        8.3848988E-19
   96.35000        8.3848998E-19
   96.54000        8.3848760E-19
   96.73000        8.3848590E-19
   96.92000        8.3848579E-19
   97.11000        8.3848652E-19
   97.30000        8.3848517E-19
   97.49000        8.3847990E-19
   97.68000        8.3847411E-19
   97.87000        8.3847044E-19
   98.06000        8.3847106E-19
   98.25000        8.3847390E-19
   98.44000        8.3847545E-19
   98.63000        8.3847535E-19
   98.82000        8.3847421E-19
   99.01000        8.3847633E-19
   99.20000        8.3848326E-19
   99.39000        8.3849324E-19
   99.58000        8.3850037E-19
   99.77000        8.3850135E-19
   99.96000        8.3849789E-19
   100.1500        8.3849525E-19
   100.3400        8.3849665E-19
   100.5300        8.3850037E-19
   100.7200        8.3850291E-19
   100.9100        8.3849913E-19
   101.1000        8.3849148E-19
   101.2900        8.3848414E-19
   101.4800        8.3848135E-19
   101.6700        8.3848186E-19
   101.8600        8.3848197E-19
   102.0500        8.3847711E-19
   102.2400        8.3846951E-19
   102.4300        8.3846124E-19
   102.6200        8.3845777E-19
   102.8100        8.3845824E-19
   103.0000        8.3845798E-19
   103.1900        8.3845245E-19
   103.3800        8.3844113E-19
   103.5700        8.3843115E-19
   103.7600        8.3843017E-19
   103.9500        8.3843777E-19
   104.1400        8.3844810E-19
   104.3300        8.3845591E-19
   104.5200        8.3845875E-19
   104.7100        8.3846175E-19
   104.9000        8.3847168E-19
   105.0900        8.3849153E-19
   105.2800        8.3851614E-19
   105.4700        8.3853708E-19
   105.6600        8.3855000E-19
   105.8500        8.3855564E-19
   106.0400        8.3855946E-19
   106.2300        8.3856556E-19
   106.4200        8.3857223E-19
   106.6100        8.3857430E-19
   106.8000        8.3856877E-19
   106.9900        8.3855771E-19
   107.1800        8.3854773E-19
   107.3700        8.3854199E-19
   107.5600        8.3853822E-19
   107.7500        8.3853155E-19
   107.9400        8.3851857E-19
   108.1300        8.3850218E-19
   108.3200        8.3848807E-19
   108.5100        8.3847902E-19
   108.7000        8.3847235E-19
   108.8900        8.3846144E-19
   109.0800        8.3844226E-19
   109.2700        8.3841569E-19
   109.4600        8.3838617E-19
   109.6500        8.3836068E-19
   109.8400        8.3834119E-19
   110.0300        8.3832398E-19
   110.2200        8.3830702E-19
   110.4100        8.3829166E-19
   110.6000        8.3828344E-19
   110.7900        8.3828593E-19
   110.9800        8.3829937E-19
   111.1700        8.3831865E-19
   111.3600        8.3834047E-19
   111.5500        8.3836601E-19
   111.7400        8.3839997E-19
   111.9300        8.3844319E-19
   112.1200        8.3849288E-19
   112.3100        8.3854292E-19
   112.5000        8.3858785E-19
   112.6900        8.3863029E-19
   112.8800        8.3867620E-19
   113.0700        8.3872981E-19
   113.2600        8.3878880E-19
   113.4500        8.3884479E-19
   113.6400        8.3888873E-19
   113.8300        8.3891769E-19
   114.0200        8.3893681E-19
   114.2100        8.3895082E-19
   114.4000        8.3896225E-19
   114.5900        8.3896520E-19
   114.7800        8.3895196E-19
   114.9700        8.3891872E-19
   115.1600        8.3886697E-19
   115.3500        8.3880100E-19
   115.5400        8.3872221E-19
   115.7300        8.3862781E-19
   115.9200        8.3851387E-19
   116.1100        8.3838255E-19
   116.3000        8.3824053E-19
   116.4900        8.3809604E-19
   116.6800        8.3795164E-19
   116.8700        8.3780466E-19
   117.0600        8.3765184E-19
   117.2500        8.3749680E-19
   117.4400        8.3735390E-19
   117.6300        8.3723856E-19
   117.8200        8.3716380E-19
   118.0100        8.3713092E-19
   118.2000        8.3713589E-19
   118.3900        8.3717461E-19
   118.5800        8.3724725E-19
   118.7700        8.3735809E-19
   118.9600        8.3751168E-19
   119.1500        8.3770773E-19
   119.3400        8.3794280E-19
   119.5300        8.3821334E-19
   119.7200        8.3851904E-19
   119.9100        8.3885771E-19
   120.1000        8.3922116E-19
   120.2900        8.3959742E-19
   120.4800        8.3997420E-19
   120.6700        8.4034152E-19
   120.8600        8.4069023E-19
   121.0500        8.4101242E-19
   121.2400        8.4129655E-19
   121.4300        8.4152454E-19
   121.6200        8.4167850E-19
   121.8100        8.4174488E-19
   122.0000        8.4171816E-19
   122.1900        8.4159956E-19
   122.3800        8.4139039E-19
   122.5700        8.4109131E-19
   122.7600        8.4069612E-19
   122.9500        8.4019914E-19
   123.1400        8.3960001E-19
   123.3300        8.3890921E-19
   123.5200        8.3814763E-19
   123.7100        8.3734201E-19
   123.9000        8.3651860E-19
   124.0900        8.3570357E-19
   124.2800        8.3491971E-19
   124.4700        8.3418533E-19
   124.6600        8.3351640E-19
   124.8500        8.3292430E-19
   125.0400        8.3241920E-19
   125.2300        8.3201367E-19
   125.4200        8.3172669E-19
   125.6100        8.3158375E-19
   125.8000        8.3160872E-19
   125.9900        8.3181531E-19
   126.1800        8.3220987E-19
   126.3700        8.3279360E-19
   126.5600        8.3356598E-19
   126.7500        8.3452556E-19
   126.9400        8.3566971E-19
   127.1300        8.3698244E-19
   127.3200        8.3843337E-19
   127.5100        8.3997978E-19
   127.7000        8.4157149E-19
   127.8900        8.4316381E-19
   128.0800        8.4471875E-19
   128.2700        8.4620670E-19
   128.4600        8.4760298E-19
   128.6500        8.4888728E-19
   128.8400        8.5004052E-19
   129.0300        8.5103945E-19
   129.2200        8.5185463E-19
   129.4100        8.5244907E-19
   129.6000        8.5277720E-19
   129.7900        8.5279814E-19
   129.9800        8.5248355E-19
   130.1700        8.5182181E-19
   130.3600        8.5081327E-19
   130.5500        8.4946403E-19
   130.7400        8.4777917E-19
   130.9300        8.4576136E-19
   131.1200        8.4341646E-19
   131.3100        8.4076457E-19
   131.5000        8.3783904E-19
   131.6900        8.3468903E-19
   131.8800        8.3136946E-19
   132.0700        8.2793386E-19
   132.2600        8.2444208E-19
   132.4500        8.2096518E-19
   132.6400        8.1759297E-19
   132.8300        8.1443205E-19
   133.0200        8.1159250E-19
   133.2100        8.0918142E-19
   133.4000        8.0728826E-19
   133.5900        8.0598230E-19
   133.7800        8.0531414E-19
   133.9700        8.0531601E-19
   134.1600        8.0601249E-19
   134.3500        8.0742987E-19
   134.5400        8.0960726E-19
   134.7300        8.1259747E-19
   134.9200        8.1645906E-19
   135.1100        8.2123820E-19
   135.3000        8.2694238E-19
   135.4900        8.3352478E-19
   135.6800        8.4088322E-19
   135.8700        8.4886639E-19
   136.0600        8.5728601E-19
   136.2500        8.6593263E-19
   136.4400        8.7458034E-19
   136.6300        8.8299163E-19
   136.8200        8.9092853E-19
   137.0100        8.9816315E-19
   137.2000        9.0448809E-19
   137.3900        9.0972155E-19
   137.5800        9.1370567E-19
   137.7700        9.1629505E-19
   137.9600        9.1734785E-19
   138.1500        9.1671506E-19
   138.3400        9.1424158E-19
   138.5300        9.0977739E-19
   138.7200        9.0319344E-19
   138.9100        8.9440972E-19
   139.1000        8.8342776E-19
   139.2900        8.7035634E-19
   139.4800        8.5541435E-19
   139.6700        8.3891660E-19
   139.8600        8.2123949E-19
   140.0500        8.0278638E-19
   140.2400        7.8396037E-19
   140.4300        7.6516238E-19
   140.6200        7.4679866E-19
   140.8100        7.2929092E-19
   141.0000        7.1308273E-19
   141.1900        6.9863452E-19
   141.3800        6.8641210E-19
   141.5700        6.7687610E-19
   141.7600        6.7046706E-19
   141.9500        6.6758893E-19
   142.1400        6.6858620E-19
   142.3300        6.7371421E-19
   142.5200        6.8312028E-19