  -30.00000       -2.9414840E-18
  -29.81000       -2.9414840E-18
  -29.62000       -2.9414840E-18
  -29.43000       -2.9414842E-18
  -29.24000       -2.9414851E-18
  -29.05000       -2.9414849E-18
  -28.86000       -2.9414842E-18
  -28.67000       -2.9414832E-18
  -28.48000       -2.9414830E-18
  -28.29000       -2.9414836E-18
  -28.10000       -2.9414842E-18
  -27.91000       -2.9414853E-18
  -27.72000       -2.9414857E-18
  -27.53000       -2.9414845E-18
  -27.34000       -2.9414832E-18
  -27.15000       -2.9414828E-18
  -26.96000       -2.9414834E-18
  -26.77000       -2.9414845E-18
  -26.58000       -2.9414853E-18
  -26.39000       -2.9414849E-18
  -26.20000       -2.9414845E-18
  -26.01000       -2.9414836E-18
  -25.82000       -2.9414840E-18
  -25.63000       -2.9414842E-18
  -25.44000       -2.9414853E-18
  -25.25000       -2.9414859E-18
  -25.06000       -2.9414855E-18
  -24.87000       -2.9414842E-18
  -24.68000       -2.9414828E-18
  -24.49000       -2.9414828E-18
  -24.30000       -2.9414840E-18
  -24.11000       -2.9414853E-18
  -23.92000       -2.9414849E-18
  -23.73000       -2.9414832E-18
  -23.54000       -2.9414820E-18
  -23.35000       -2.9414820E-18
  -23.16000       -2.9414828E-18
  -22.97000       -2.9414847E-18
  -22.78000       -2.9414851E-18
  -22.59000       -2.9414836E-18
  -22.40000       -2.9414811E-18
  -22.21000       -2.9414809E-18
  -22.02000       -2.9414832E-18
  -21.83000       -2.9414855E-18
  -21.64000       -2.9414861E-18
  -21.45000       -2.9414847E-18
  -21.26000       -2.9414830E-18
  -21.07000       -2.9414828E-18
  -20.88000       -2.9414851E-18
  -20.69000       -2.9414880E-18
  -20.50000       -2.9414888E-18
  -20.31000       -2.9414873E-18
  -20.12000       -2.9414842E-18
  -19.93000       -2.9414822E-18
  -19.74000       -2.9414826E-18
  -19.55000       -2.9414845E-18
  -19.36000       -2.9414851E-18
  -19.17000       -2.9414842E-18
  -18.98000       -2.9414830E-18
  -18.79000       -2.9414828E-18
  -18.60000       -2.9414847E-18
  -18.41000       -2.9414880E-18
  -18.22000       -2.9414904E-18
  -18.03000       -2.9414898E-18
  -17.84000       -2.9414861E-18
  -17.65000       -2.9414824E-18
  -17.46000       -2.9414822E-18
  -17.27000       -2.9414851E-18
  -17.08000       -2.9414882E-18
  -16.89000       -2.9414880E-18
  -16.70000       -2.9414853E-18
  -16.51000       -2.9414822E-18
  -16.32000       -2.9414809E-18
  -16.13000       -2.9414834E-18
  -15.94000       -2.9414876E-18
  -15.75000       -2.9414890E-18
  -15.56000       -2.9414857E-18
  -15.37000       -2.9414809E-18
  -15.18000       -2.9414778E-18
  -14.99000       -2.9414782E-18
  -14.80000       -2.9414818E-18
  -14.61000       -2.9414849E-18
  -14.42000       -2.9414842E-18
  -14.23000       -2.9414811E-18
  -14.04000       -2.9414793E-18
  -13.85000       -2.9414803E-18
  -13.66000       -2.9414851E-18
  -13.47000       -2.9414884E-18
  -13.28000       -2.9414884E-18
  -13.09000       -2.9414853E-18
  -12.90000       -2.9414816E-18
  -12.71000       -2.9414809E-18
  -12.52000       -2.9414830E-18
  -12.33000       -2.9414861E-18
  -12.14000       -2.9414861E-18
  -11.95000       -2.9414813E-18
  -11.76000       -2.9414772E-18
  -11.57000       -2.9414764E-18
  -11.38000       -2.9414799E-18
  -11.19000       -2.9414855E-18
  -11.00000       -2.9414882E-18
  -10.81000       -2.9414873E-18
  -10.62000       -2.9414847E-18
  -10.43000       -2.9414836E-18
  -10.24000       -2.9414869E-18
  -10.05000       -2.9414919E-18
  -9.860000       -2.9414938E-18
  -9.670000       -2.9414911E-18
  -9.480000       -2.9414849E-18
  -9.290000       -2.9414813E-18
  -9.100000       -2.9414818E-18
  -8.910000       -2.9414857E-18
  -8.720000       -2.9414892E-18
  -8.530000       -2.9414880E-18
  -8.340000       -2.9414836E-18
  -8.150000       -2.9414805E-18
  -7.960000       -2.9414818E-18
  -7.770000       -2.9414842E-18
  -7.580000       -2.9414865E-18
  -7.390000       -2.9414836E-18
  -7.200000       -2.9414791E-18
  -7.010000       -2.9414756E-18
  -6.820000       -2.9414770E-18
  -6.630000       -2.9414820E-18
  -6.440000       -2.9414865E-18
  -6.250000       -2.9414867E-18
  -6.060000       -2.9414824E-18
  -5.870000       -2.9414772E-18
  -5.680000       -2.9414774E-18
  -5.490000       -2.9414824E-18
  -5.300000       -2.9414876E-18
  -5.110000       -2.9414888E-18
  -4.920000       -2.9414857E-18
  -4.730000       -2.9414818E-18
  -4.540000       -2.9414824E-18
  -4.350000       -2.9414876E-18
  -4.160000       -2.9414925E-18
  -3.970000       -2.9414931E-18
  -3.780000       -2.9414869E-18
  -3.590000       -2.9414801E-18
  -3.400000       -2.9414778E-18
  -3.210000       -2.9414811E-18
  -3.020000       -2.9414857E-18
  -2.830000       -2.9414855E-18
  -2.640000       -2.9414801E-18
  -2.450000       -2.9414745E-18
  -2.260000       -2.9414722E-18
  -2.070000       -2.9414754E-18
  -1.880000       -2.9414813E-18
  -1.690000       -2.9414838E-18
  -1.500000       -2.9414820E-18
  -1.310000       -2.9414789E-18
  -1.120000       -2.9414805E-18
 -0.9300000       -2.9414884E-18
 -0.7400000       -2.9414962E-18
 -0.5500000       -2.9414983E-18
 -0.3600000       -2.9414950E-18
 -0.1700000       -2.9414888E-18
  2.0000000E-02   -2.9414840E-18
  0.2100000       -2.9414842E-18
  0.4000000       -2.9414873E-18
  0.5900000       -2.9414878E-18
  0.7800000       -2.9414851E-18
  0.9700000       -2.9414813E-18
   1.160000       -2.9414799E-18
   1.350000       -2.9414820E-18
   1.540000       -2.9414869E-18
   1.730000       -2.9414902E-18
   1.920000       -2.9414898E-18
   2.110000       -2.9414863E-18
   2.300000       -2.9414840E-18
   2.490000       -2.9414861E-18
   2.680000       -2.9414917E-18
   2.870000       -2.9414958E-18
   3.060000       -2.9414950E-18
   3.250000       -2.9414890E-18
   3.440000       -2.9414834E-18
   3.630000       -2.9414830E-18
   3.820000       -2.9414876E-18
   4.010000       -2.9414898E-18
   4.200000       -2.9414857E-18
   4.390000       -2.9414778E-18
   4.580000       -2.9414729E-18
   4.770000       -2.9414741E-18
   4.960000       -2.9414813E-18
   5.150000       -2.9414880E-18
   5.340000       -2.9414884E-18
   5.530000       -2.9414840E-18
   5.720000       -2.9414799E-18
   5.910000       -2.9414809E-18
   6.100000       -2.9414873E-18
   6.290000       -2.9414929E-18
   6.480000       -2.9414915E-18
   6.670000       -2.9414836E-18
   6.860000       -2.9414749E-18
   7.050000       -2.9414718E-18
   7.240000       -2.9414741E-18
   7.430000       -2.9414793E-18
   7.620000       -2.9414820E-18
   7.810000       -2.9414797E-18
   8.000000       -2.9414774E-18
   8.190000       -2.9414793E-18
   8.380000       -2.9414859E-18
   8.570000       -2.9414931E-18
   8.760000       -2.9414969E-18
   8.950000       -2.9414933E-18
   9.140000       -2.9414873E-18
   9.330000       -2.9414840E-18
   9.520000       -2.9414853E-18
   9.710000       -2.9414888E-18
   9.900000       -2.9414886E-18
   10.09000       -2.9414826E-18
   10.28000       -2.9414745E-18
   10.47000       -2.9414696E-18
   10.66000       -2.9414702E-18
   10.85000       -2.9414729E-18
   11.04000       -2.9414737E-18
   11.23000       -2.9414712E-18
   11.42000       -2.9414691E-18
   11.61000       -2.9414716E-18
   11.80000       -2.9414785E-18
   11.99000       -2.9414869E-18
   12.18000       -2.9414919E-18
   12.37000       -2.9414904E-18
   12.56000       -2.9414861E-18
   12.75000       -2.9414842E-18
   12.94000       -2.9414876E-18
   13.13000       -2.9414919E-18
   13.32000       -2.9414927E-18
   13.51000       -2.9414880E-18
   13.70000       -2.9414818E-18
   13.89000       -2.9414805E-18
   14.08000       -2.9414842E-18
   14.27000       -2.9414896E-18
   14.46000       -2.9414917E-18
   14.65000       -2.9414876E-18
   14.84000       -2.9414809E-18
   15.03000       -2.9414770E-18
   15.22000       -2.9414813E-18
   15.41000       -2.9414886E-18
   15.60000       -2.9414923E-18
   15.79000       -2.9414900E-18
   15.98000       -2.9414838E-18
   16.17000       -2.9414791E-18
   16.36000       -2.9414809E-18
   16.55000       -2.9414876E-18
   16.74000       -2.9414935E-18
   16.93000       -2.9414938E-18
   17.12000       -2.9414896E-18
   17.31000       -2.9414859E-18
   17.50000       -2.9414869E-18
   17.69000       -2.9414907E-18
   17.88000       -2.9414935E-18
   18.07000       -2.9414902E-18
   18.26000       -2.9414803E-18
   18.45000       -2.9414704E-18
   18.64000       -2.9414677E-18
   18.83000       -2.9414722E-18
   19.02000       -2.9414789E-18
   19.21000       -2.9414816E-18
   19.40000       -2.9414805E-18
   19.59000       -2.9414805E-18
   19.78000       -2.9414845E-18
   19.97000       -2.9414925E-18
   20.16000       -2.9414985E-18
   20.35000       -2.9414971E-18
   20.54000       -2.9414880E-18
   20.73000       -2.9414772E-18
   20.92000       -2.9414729E-18
   21.11000       -2.9414745E-18
   21.30000       -2.9414778E-18
   21.49000       -2.9414766E-18
   21.68000       -2.9414694E-18
   21.87000       -2.9414623E-18
   22.06000       -2.9414621E-18
   22.25000       -2.9414722E-18
   22.44000       -2.9414853E-18
   22.63000       -2.9414919E-18
   22.82000       -2.9414888E-18
   23.01000       -2.9414803E-18
   23.20000       -2.9414764E-18
   23.39000       -2.9414803E-18
   23.58000       -2.9414884E-18
   23.77000       -2.9414927E-18
   23.96000       -2.9414900E-18
   24.15000       -2.9414832E-18
   24.34000       -2.9414811E-18
   24.53000       -2.9414873E-18
   24.72000       -2.9414983E-18
   24.91000       -2.9415045E-18
   25.10000       -2.9415004E-18
   25.29000       -2.9414890E-18
   25.48000       -2.9414795E-18
   25.67000       -2.9414776E-18
   25.86000       -2.9414809E-18
   26.05000       -2.9414820E-18
   26.24000       -2.9414772E-18
   26.43000       -2.9414696E-18
   26.62000       -2.9414677E-18
   26.81000       -2.9414754E-18
   27.00000       -2.9414876E-18
   27.19000       -2.9414964E-18
   27.38000       -2.9414950E-18
   27.57000       -2.9414867E-18
   27.76000       -2.9414818E-18
   27.95000       -2.9414853E-18
   28.14000       -2.9414933E-18
   28.33000       -2.9414967E-18
   28.52000       -2.9414907E-18
   28.71000       -2.9414797E-18
   28.90000       -2.9414729E-18
   29.09000       -2.9414764E-18
   29.28000       -2.9414878E-18
   29.47000       -2.9414967E-18
   29.66000       -2.9414964E-18
   29.85000       -2.9414894E-18
   30.04000       -2.9414851E-18
   30.23000       -2.9414888E-18
   30.42000       -2.9414977E-18
   30.61000       -2.9415004E-18
   30.80000       -2.9414919E-18
   30.99000       -2.9414770E-18
   31.18000       -2.9414671E-18
   31.37000       -2.9414698E-18
   31.56000       -2.9414840E-18
   31.75000       -2.9414985E-18
   31.94000       -2.9415033E-18
   32.13000       -2.9414987E-18
   32.32000       -2.9414938E-18
   32.51000       -2.9414952E-18
   32.70000       -2.9415006E-18
   32.89000       -2.9415022E-18
   33.08000       -2.9414923E-18
   33.27000       -2.9414741E-18
   33.46000       -2.9414588E-18
   33.65000       -2.9414561E-18
   33.84000       -2.9414663E-18
   34.03000       -2.9414785E-18
   34.22000       -2.9414832E-18
   34.41000       -2.9414811E-18
   34.60000       -2.9414780E-18
   34.79000       -2.9414809E-18
   34.98000       -2.9414907E-18
   35.17000       -2.9414989E-18
   35.36000       -2.9414989E-18
   35.55000       -2.9414923E-18
   35.74000       -2.9414857E-18
   35.93000       -2.9414863E-18
   36.12000       -2.9414929E-18
   36.31000       -2.9414981E-18
   36.50000       -2.9414950E-18
   36.69000       -2.9414880E-18
   36.88000       -2.9414818E-18
   37.07000       -2.9414828E-18
   37.26000       -2.9414890E-18
   37.45000       -2.9414919E-18
   37.64000       -2.9414845E-18
   37.83000       -2.9414702E-18
   38.02000       -2.9414592E-18
   38.21000       -2.9414576E-18
   38.40000       -2.9414646E-18
   38.59000       -2.9414716E-18
   38.78000       -2.9414722E-18
   38.97000       -2.9414652E-18
   39.16000       -2.9414605E-18
   39.35000       -2.9414663E-18
   39.54000       -2.9414822E-18
   39.73000       -2.9414962E-18
   39.92000       -2.9414983E-18
   40.11000       -2.9414890E-18
   40.30000       -2.9414778E-18
   40.49000       -2.9414751E-18
   40.68000       -2.9414826E-18
   40.87000       -2.9414929E-18
   41.06000       -2.9414969E-18
   41.25000       -2.9414931E-18
   41.44000       -2.9414880E-18
   41.63000       -2.9414900E-18
   41.82000       -2.9415039E-18
   42.01000       -2.9415208E-18
   42.20000       -2.9415295E-18
   42.39000       -2.9415273E-18
   42.58000       -2.9415190E-18
   42.77000       -2.9415159E-18
   42.96000       -2.9415225E-18
   43.15000       -2.9415316E-18
   43.34000       -2.9415341E-18
   43.53000       -2.9415248E-18
   43.72000       -2.9415103E-18
   43.91000       -2.9414985E-18
   44.10000       -2.9414911E-18
   44.29000       -2.9414785E-18
   44.48000       -2.9414509E-18
   44.67000       -2.9414073E-18
   44.86000       -2.9413550E-18
   45.05000       -2.9413047E-18
   45.24000       -2.9412613E-18
   45.43000       -2.9412198E-18
   45.62000       -2.9411745E-18
   45.81000       -2.9411265E-18
   46.00000       -2.9410843E-18
   46.19000       -2.9410597E-18
   46.38000       -2.9410613E-18
   46.57000       -2.9410851E-18
   46.76000       -2.9411246E-18
   46.95000       -2.9411805E-18
   47.14000       -2.9412648E-18
   47.33000       -2.9413920E-18
   47.52000       -2.9415684E-18
   47.71000       -2.9417886E-18
   47.90000       -2.9420432E-18
   48.09000       -2.9423255E-18
   48.28000       -2.9426338E-18
   48.47000       -2.9429676E-18
   48.66000       -2.9433175E-18
   48.85000       -2.9436589E-18
   49.04000       -2.9439598E-18
   49.23000       -2.9441914E-18
   49.42000       -2.9443322E-18
   49.61000       -2.9443645E-18
   49.80000       -2.9442646E-18
   49.99000       -2.9440036E-18
   50.18000       -2.9435501E-18
   50.37000       -2.9428828E-18
   50.56000       -2.9419985E-18
   50.75000       -2.9409087E-18
   50.94000       -2.9396305E-18
   51.13000       -2.9381848E-18
   51.32000       -2.9366026E-18
   51.51000       -2.9349317E-18
   51.70000       -2.9332441E-18
   51.89000       -2.9316282E-18
   52.08000       -2.9301808E-18
   52.27000       -2.9289992E-18
   52.46000       -2.9281795E-18
   52.65000       -2.9278227E-18
   52.84000       -2.9280320E-18
   53.03000       -2.9289020E-18
   53.22000       -2.9305057E-18
   53.41000       -2.9328871E-18
   53.60000       -2.9360559E-18
   53.79000       -2.9399866E-18
   53.98000       -2.9446242E-18
   54.17000       -2.9498779E-18
   54.36000       -2.9556125E-18
   54.55000       -2.9616433E-18
   54.74000       -2.9677423E-18
   54.93000       -2.9736510E-18
   55.12000       -2.9790957E-18
   55.31000       -2.9837892E-18
   55.50000       -2.9874337E-18
   55.69000       -2.9897306E-18
   55.88000       -2.9903965E-18
   56.07000       -2.9891824E-18
   56.26000       -2.9858947E-18
   56.45000       -2.9804083E-18
   56.64000       -2.9726621E-18
   56.83000       -2.9626716E-18
   57.02000       -2.9505365E-18
   57.21000       -2.9364573E-18
   57.40000       -2.9207381E-18
   57.59000       -2.9037867E-18
   57.78000       -2.8860973E-18
   57.97000       -2.8682337E-18
   58.16000       -2.8508199E-18
   58.35000       -2.8345348E-18
   58.54000       -2.8200953E-18
   58.73000       -2.8082325E-18
   58.92000       -2.7996563E-18
   59.11000       -2.7950257E-18
   59.30000       -2.7949265E-18
   59.49000       -2.7998538E-18
   59.68000       -2.8101935E-18
   59.87000       -2.8261920E-18
   60.06000       -2.8479278E-18
   60.25000       -2.8752873E-18
   60.44000       -2.9079545E-18
   60.63000       -2.9454138E-18
   60.82000       -2.9869475E-18
   61.01000       -3.0316393E-18
   61.20000       -3.0783742E-18
   61.39000       -3.1258568E-18
   61.58000       -3.1726376E-18
   61.77000       -3.2171548E-18
   61.96000       -3.2577814E-18
   62.15000       -3.2928666E-18
   62.34000       -3.3207801E-18
   62.53000       -3.3399651E-18
   62.72000       -3.3489929E-18
   62.91000       -3.3466218E-18
   63.10000       -3.3318519E-18
   63.29000       -3.3039672E-18
   63.48000       -3.2625596E-18
   63.67000       -3.2075560E-18
   63.86000       -3.1392333E-18
   64.05000       -3.0582385E-18
   64.24000       -2.9655968E-18
   64.43000       -2.8627079E-18
   64.62000       -2.7513349E-18
   64.81000       -2.6335909E-18
   65.00000       -2.5119298E-18
   65.19000       -2.3891387E-18
   65.38000       -2.2683354E-18
   65.57000       -2.1529479E-18
   65.76000       -2.0466849E-18
   65.95000       -1.9534902E-18
   66.14000       -1.8774878E-18
   66.33000       -1.8229080E-18
   66.52000       -1.7939843E-18
   66.71000       -1.7948157E-18
   66.90000       -1.8291881E-18
   67.09000       -1.9003645E-18
   67.28000       -2.0108519E-18
   67.47000       -2.1621641E-18
   67.66000       -2.3545915E-18
   67.85000       -2.5869766E-18
   68.04000       -2.8565249E-18
   68.23000       -3.1586684E-18
   68.42000       -3.4870101E-18
   68.61000       -3.8333663E-18
   68.80000       -4.1879149E-18
   68.99000       -4.5394464E-18
   69.18000       -4.8757045E-18
   69.37000       -5.1838201E-18
   69.56000       -5.4508241E-18
   69.75000       -5.6642177E-18
   69.94000       -5.8125688E-18
   70.13000       -5.8860849E-18
   70.32000       -5.8771352E-18
   70.51000       -5.7806876E-18
   70.70000       -5.5946406E-18
   70.89000       -5.3200200E-18
   71.08000       -4.9610509E-18
   71.27000       -4.5250518E-18
   71.46000       -4.0221785E-18
   71.65000       -3.4650149E-18
   71.84000       -2.8680513E-18
   72.03000       -2.2470711E-18
   72.22000       -1.6184855E-18
   72.41000       -9.9865040E-19
   72.60000       -4.0319391E-19
   72.79000        1.5359812E-19
   72.98000        6.5929485E-19
   73.17000        1.1036861E-18
   73.36000        1.4789810E-18
   73.55000        1.7798387E-18
   73.74000        2.0032298E-18
   73.93000        2.1481490E-18
   74.12000        2.2151824E-18
   74.31000        2.2059734E-18
   74.50000        2.1226207E-18
   74.69000        1.9670655E-18
   74.88000        1.7405377E-18
   75.07000        1.4430968E-18
   75.26000        1.0732978E-18
   75.45000        6.2801320E-19
   75.64000        1.0242979E-19
   75.83000       -5.0975481E-19
   76.02000       -1.2159382E-18
   76.21000       -2.0240270E-18
   76.40000       -2.9416761E-18
   76.59000       -3.9753854E-18
   76.78000       -5.1294785E-18
   76.97000       -6.4049736E-18
   77.16000       -7.7983734E-18
   77.35000       -9.3004069E-18
   77.54000       -1.0894762E-17
   77.73000       -1.2556895E-17
   77.92000       -1.4252972E-17
   78.11000       -1.5939046E-17
   78.30000       -1.7560580E-17
   78.49000       -1.9052453E-17
   78.68000       -2.0339572E-17
   78.87000       -2.1338265E-17
   79.06000       -2.1958550E-17
   79.25000       -2.2107337E-17
   79.44000       -2.1692606E-17
   79.63000       -2.0628467E-17
   79.82000       -1.8840956E-17
   80.01000       -1.6274330E-17
   80.20000       -1.2897527E-17
   80.39000       -8.7104112E-18
   80.58000       -3.7492871E-18
   80.77000        1.9087728E-18
   80.96000        8.1432639E-18
   81.15000        1.4789644E-17
   81.34000        2.1641159E-17
   81.53000        2.8453240E-17
   81.72000        3.4950591E-17
   81.91000        4.0836875E-17
   82.10000        4.5806652E-17
   82.29000        4.9559150E-17
   82.48000        5.1813297E-17
   82.67000        5.2323194E-17
   82.86000        5.0893376E-17
   83.05000        4.7392903E-17
   83.24000        4.1767535E-17
   83.43000        3.4049153E-17
   83.62000        2.4361750E-17
   83.81000        1.2923432E-17
   84.00000        4.4130053E-20
   84.19000       -1.3881191E-17
   84.38000       -2.8383806E-17
   84.57000       -4.2936706E-17
   84.76000       -5.6973798E-17
   84.95000       -6.9912134E-17
   85.14000       -8.1176316E-17
   85.33000       -9.0223845E-17
   85.52000       -9.6570656E-17
   85.71000       -9.9815269E-17
   85.90000       -9.9660573E-17
   86.09000       -9.5932133E-17
   86.28000       -8.8591983E-17
   86.47000       -7.7747063E-17
   86.66000       -6.3651879E-17
   86.85000       -4.6704814E-17
   87.04000       -2.7438362E-17
   87.23000       -6.5031794E-18
   87.42000        1.5353177E-17
   87.61000        3.7312513E-17
   87.80000        5.8516100E-17
   87.99000        7.8097629E-17
   88.18000        9.5217832E-17
   88.37000        1.0909939E-16
   88.56000        1.1906103E-16
   88.75000        1.2454937E-16
   88.94000        1.2516740E-16
   89.13000        1.2069815E-16
   89.32000        1.1112265E-16
   89.51000        9.6630855E-17
   89.70000        7.7624918E-17
   89.89000        5.4713703E-17
   90.08000        2.8698585E-17
   90.27000        5.4984463E-19
   90.46000       -2.8625786E-17
   90.65000       -5.7625895E-17
   90.84000       -8.5200205E-17
   91.03000       -1.1010421E-16
   91.22000       -1.3115584E-16
   91.41000       -1.4729318E-16
   91.60000       -1.5763001E-16
   91.79000       -1.6150615E-16
   91.98000       -1.5852963E-16
   92.17000       -1.4860777E-16
   92.36000       -1.3196502E-16
   92.55000       -1.0914508E-16
   92.74000       -8.0997062E-17
   92.93000       -4.8644672E-17
   93.12000       -1.3440347E-17
   93.31000        2.3094625E-17
   93.50000        5.9340898E-17
   93.69000        9.3658723E-17
   93.88000        1.2446912E-16
   94.07000        1.5033391E-16
   94.26000        1.7002940E-16
   94.45000        1.8261031E-16
   94.64000        1.8745967E-16
   94.83000        1.8432167E-16
   95.02000        1.7331600E-16
   95.21000        1.5493252E-16
   95.40000        1.3000651E-16
   95.59000        9.9676018E-17
   95.78000        6.5323346E-17
   95.97000        2.8504690E-17
   96.16000       -9.1282946E-18
   96.35000       -4.5910830E-17
   96.54000       -8.0246128E-17
   96.73000       -1.1068227E-16
   96.92000       -1.3597922E-16
   97.11000       -1.5516402E-16
   97.30000       -1.6757072E-16
   97.49000       -1.7286395E-16
   97.68000       -1.7104607E-16
   97.87000       -1.6244730E-16
   98.06000       -1.4770160E-16
   98.25000       -1.2770904E-16
   98.44000       -1.0358774E-16
   98.63000       -7.6618101E-17
   98.82000       -4.8182526E-17
   99.01000       -1.9703267E-17
   99.20000        7.4187985E-18
   99.39000        3.1862693E-17
   99.58000        5.2441223E-17
   99.77000        6.8149095E-17
   99.96000        7.8204084E-17
   100.1500        8.2080636E-17
   100.3400        7.9535176E-17
   100.5300        7.0622894E-17
   100.7200        5.5705294E-17
   100.9100        3.5448001E-17
   101.1000        1.0807288E-17
   101.2900       -1.6994528E-17
   101.4800       -4.6505950E-17
   101.6700       -7.6096136E-17
   101.8600       -1.0401614E-16
   102.0500       -1.2847209E-16
   102.2400       -1.4770730E-16
   102.4300       -1.6009075E-16
   102.6200       -1.6420795E-16
   102.8100       -1.5894954E-16
   103.0000       -1.4359161E-16
   103.1900       -1.1786265E-16
   103.3800       -8.1991446E-17
   103.5700       -3.6731243E-17
   103.7600        1.6643291E-17
   103.9500        7.6368239E-17
   104.1400        1.4025198E-16
   104.3300        2.0576388E-16
   104.5200        2.7014649E-16
   104.7100        3.3054476E-16
   104.9000        3.8414506E-16
   105.0900        4.2831571E-16
   105.2800        4.6073981E-16
   105.4700        4.7953251E-16
   105.6600        4.8333500E-16
   105.8500        4.7137881E-16
   106.0400        4.4351693E-16
   106.2300        4.0021994E-16
   106.4200        3.4253880E-16
   106.6100        2.7203773E-16
   106.8000        1.9070241E-16
   106.9900        1.0083115E-16
   107.1800        4.9167860E-18
   107.3700       -9.4471080E-17
   107.5600       -1.9479608E-16
   107.7500       -2.9364864E-16
   107.9400       -3.8881930E-16
   108.1300       -4.7834719E-16
   108.3200       -5.6054152E-16
   108.5100       -6.3397886E-16
   108.7000       -6.9747869E-16
   108.8900       -7.5006149E-16
   109.0800       -7.9089774E-16
   109.2700       -8.1925397E-16
   109.4600       -8.3444387E-16
   109.6500       -8.3579197E-16
   109.8400       -8.2261394E-16
   110.0300       -7.9421960E-16
   110.2200       -7.4993814E-16
   110.4100       -6.8916692E-16
   110.6000       -6.1143957E-16
   110.7900       -5.1651127E-16
   110.9800       -4.0445058E-16
   111.1700       -2.7573432E-16
   111.3600       -1.3133491E-16
   111.5500        2.7207300E-17
   111.7400        1.9773348E-16
   111.9300        3.7744320E-16
   112.1200        5.6290416E-16
   112.3100        7.5009574E-16
   112.5000        9.3448740E-16
   112.6900        1.1111495E-15
   112.8800        1.2748912E-15
   113.0700        1.4204229E-15
   113.2600        1.5425319E-15
   113.4500        1.6362691E-15
   113.6400        1.6971359E-15
   113.8300        1.7212652E-15
   114.0200        1.7055892E-15
   114.2100        1.6479890E-15
   114.4000        1.5474182E-15
   114.5900        1.4039986E-15
   114.7800        1.2190837E-15
   114.9700        9.9528669E-16
   115.1600        7.3647143E-16
   115.3500        4.4770466E-16
   115.5400        1.3516860E-16
   115.7300       -1.9396553E-16
   115.9200       -5.3170286E-16
   116.1100       -8.6942686E-16
   116.3000       -1.1981357E-15
   116.4900       -1.5087080E-15
   116.6800       -1.7921898E-15
   116.8700       -2.0400988E-15
   117.0600       -2.2447318E-15
   117.2500       -2.3994652E-15
   117.4400       -2.4990341E-15
   117.6300       -2.5397781E-15
   117.8200       -2.5198373E-15
   118.0100       -2.4392863E-15
   118.2000       -2.3001974E-15
   118.3900       -2.1066182E-15
   118.5800       -1.8644641E-15
   118.7700       -1.5813240E-15
   118.9600       -1.2661777E-15
   119.1500       -9.2904448E-16
   119.3400       -5.8056766E-16
   119.5300       -2.3155970E-16
   119.7200        1.0747361E-16
   119.9100        4.2680238E-16
   120.1000        7.1791056E-16
   120.2900        9.7387740E-16
   120.4800        1.1896815E-15
   120.6700        1.3624034E-15
   120.8600        1.4913180E-15
   121.0500        1.5778689E-15
   121.2400        1.6255220E-15
   121.4300        1.6395070E-15
   121.6200        1.6264584E-15
   121.8100        1.5939794E-15
   122.0000        1.5501529E-15
   122.1900        1.5030282E-15
   122.3800        1.4601142E-15
   122.5700        1.4279092E-15
   122.7600        1.4114941E-15
   122.9500        1.4142156E-15
   123.1400        1.4374769E-15
   123.3300        1.4806446E-15
   123.5200        1.5410744E-15
   123.7100        1.6142505E-15
   123.9000        1.6940290E-15
   124.0900        1.7729632E-15
   124.2800        1.8426893E-15
   124.4700        1.8943496E-15
   124.6600        1.9190188E-15
   124.8500        1.9081173E-15
   125.0400        1.8537854E-15
   125.2300        1.7492069E-15
   125.4200        1.5888739E-15
   125.6100        1.3687866E-15
   125.8000        1.0865939E-15
   125.9900        7.4168063E-16
   126.1800        3.3521824E-16
   126.3700       -1.2981218E-16
   126.5600       -6.4861442E-16
   126.7500       -1.2145749E-15
   126.9400       -1.8192675E-15
   127.1300       -2.4524645E-15
   127.3200       -3.1021658E-15
   127.5100       -3.7546569E-15
   127.7000       -4.3946089E-15
   127.8900       -5.0052507E-15
   128.0800       -5.5686258E-15
   128.2700       -6.0659498E-15
   128.4600       -6.4780699E-15
   128.6500       -6.7860290E-15
   128.8400       -6.9717325E-15
   129.0300       -7.0186759E-15
   129.2200       -6.9127269E-15
   129.4100       -6.6429016E-15
   129.6000       -6.2021014E-15
   129.7900       -5.5877658E-15
   129.9800       -4.8023892E-15
   130.1700       -3.8538661E-15
   130.3600       -2.7556404E-15
   130.5500       -1.5266206E-15
   130.7400       -1.9087318E-16
   130.9300        1.2229092E-15
   131.1200        2.6821402E-15
   131.3100        4.1512509E-15
   131.5000        5.5927341E-15
   131.6900        6.9682745E-15
   131.8800        8.2399230E-15
   132.0700        9.3712600E-15
   132.2600        1.0328505E-14
   132.4500        1.1081538E-14
   132.6400        1.1604808E-14
   132.8300        1.1878085E-14
   133.0200        1.1887069E-14
   133.2100        1.1623824E-14
   133.4000        1.1087073E-14
   133.5900        1.0282321E-14
   133.7800        9.2218459E-15
   133.9700        7.9245463E-15
   134.1600        6.4156579E-15
   134.3500        4.7263486E-15
   134.5400        2.8931706E-15
   134.7300        9.5738313E-16
   134.9200       -1.0358594E-15
   135.1100       -3.0384611E-15
   135.3000       -5.0004874E-15
   135.4900       -6.8714087E-15
   135.6800       -8.6014697E-15
   135.8700       -1.0143146E-14
   136.0600       -1.1452662E-14
   136.2500       -1.2491507E-14
   136.4400       -1.3227886E-14
   136.6300       -1.3638037E-14
   136.8200       -1.3707327E-14
   137.0100       -1.3431060E-14
   137.2000       -1.2814926E-14
   137.3900       -1.1875031E-14
   137.5800       -1.0637497E-14
   137.7700       -9.1376119E-15
   137.9600       -7.4185687E-15
   138.1500       -5.5298457E-15
   138.3400       -3.5253048E-15
   138.5300       -1.4611029E-15
   138.7200        6.0645870E-16
   138.9100        2.6230211E-15
   139.1000        4.5380688E-15
   139.2900        6.3065504E-15
   139.4800        7.8901246E-15
   139.6700        9.2579981E-15
   139.8600        1.0387316E-14
   140.0500        1.1263123E-14
   140.2400        1.1877946E-14
   140.4300        1.2231046E-14
   140.6200        1.2327473E-14
   140.8100        1.2176995E-14
   141.0000        1.1793022E-14
   141.1900        1.1191602E-14
   141.3800        1.0390579E-14
   141.5700        9.4089309E-15
   141.7600        8.2663597E-15
   141.9500        6.9830840E-15
   142.1400        5.5798198E-15
   142.3300        4.0778894E-15
   142.5200        2.4993787E-15