  -30.00000        1.0803968E-18
  -29.81000        1.0803968E-18
  -29.62000        1.0803968E-18
  -29.43000        1.0803968E-18
  -29.24000        1.0803969E-18
  -29.05000        1.0803970E-18
  -28.86000        1.0803972E-18
  -28.67000        1.0803972E-18
  -28.48000        1.0803972E-18
  -28.29000        1.0803972E-18
  -28.10000        1.0803969E-18
  -27.91000        1.0803967E-18
  -27.72000        1.0803964E-18
  -27.53000        1.0803961E-18
  -27.34000        1.0803961E-18
  -27.15000        1.0803962E-18
  -26.96000        1.0803966E-18
  -26.77000        1.0803970E-18
  -26.58000        1.0803976E-18
  -26.39000        1.0803977E-18
  -26.20000        1.0803977E-18
  -26.01000        1.0803975E-18
  -25.82000        1.0803969E-18
  -25.63000        1.0803961E-18
  -25.44000        1.0803959E-18
  -25.25000        1.0803959E-18
  -25.06000        1.0803959E-18
  -24.87000        1.0803966E-18
  -24.68000        1.0803970E-18
  -24.49000        1.0803976E-18
  -24.30000        1.0803977E-18
  -24.11000        1.0803977E-18
  -23.92000        1.0803977E-18
  -23.73000        1.0803977E-18
  -23.54000        1.0803972E-18
  -23.35000        1.0803970E-18
  -23.16000        1.0803966E-18
  -22.97000        1.0803968E-18
  -22.78000        1.0803976E-18
  -22.59000        1.0803975E-18
  -22.40000        1.0803977E-18
  -22.21000        1.0803977E-18
  -22.02000        1.0803971E-18
  -21.83000        1.0803965E-18
  -21.64000        1.0803957E-18
  -21.45000        1.0803952E-18
  -21.26000        1.0803950E-18
  -21.07000        1.0803955E-18
  -20.88000        1.0803966E-18
  -20.69000        1.0803978E-18
  -20.50000        1.0803986E-18
  -20.31000        1.0803986E-18
  -20.12000        1.0803979E-18
  -19.93000        1.0803967E-18
  -19.74000        1.0803963E-18
  -19.55000        1.0803959E-18
  -19.36000        1.0803957E-18
  -19.17000        1.0803963E-18
  -18.98000        1.0803970E-18
  -18.79000        1.0803979E-18
  -18.60000        1.0803988E-18
  -18.41000        1.0803984E-18
  -18.22000        1.0803975E-18
  -18.03000        1.0803961E-18
  -17.84000        1.0803947E-18
  -17.65000        1.0803939E-18
  -17.46000        1.0803932E-18
  -17.27000        1.0803938E-18
  -17.08000        1.0803951E-18
  -16.89000        1.0803967E-18
  -16.70000        1.0803981E-18
  -16.51000        1.0803988E-18
  -16.32000        1.0803985E-18
  -16.13000        1.0803977E-18
  -15.94000        1.0803964E-18
  -15.75000        1.0803955E-18
  -15.56000        1.0803949E-18
  -15.37000        1.0803953E-18
  -15.18000        1.0803959E-18
  -14.99000        1.0803977E-18
  -14.80000        1.0803992E-18
  -14.61000        1.0804001E-18
  -14.42000        1.0804007E-18
  -14.23000        1.0804000E-18
  -14.04000        1.0803989E-18
  -13.85000        1.0803972E-18
  -13.66000        1.0803954E-18
  -13.47000        1.0803942E-18
  -13.28000        1.0803948E-18
  -13.09000        1.0803955E-18
  -12.90000        1.0803979E-18
  -12.71000        1.0804001E-18
  -12.52000        1.0804014E-18
  -12.33000        1.0804013E-18
  -12.14000        1.0804008E-18
  -11.95000        1.0803997E-18
  -11.76000        1.0803980E-18
  -11.57000        1.0803964E-18
  -11.38000        1.0803957E-18
  -11.19000        1.0803957E-18
  -11.00000        1.0803960E-18
  -10.81000        1.0803970E-18
  -10.62000        1.0803981E-18
  -10.43000        1.0803993E-18
  -10.24000        1.0803997E-18
  -10.05000        1.0803999E-18
  -9.860000        1.0803986E-18
  -9.670000        1.0803975E-18
  -9.480000        1.0803968E-18
  -9.290000        1.0803960E-18
  -9.100000        1.0803953E-18
  -8.910000        1.0803948E-18
  -8.720000        1.0803937E-18
  -8.530000        1.0803933E-18
  -8.340000        1.0803934E-18
  -8.150000        1.0803935E-18
  -7.960000        1.0803941E-18
  -7.770000        1.0803955E-18
  -7.580000        1.0803969E-18
  -7.390000        1.0803984E-18
  -7.200000        1.0803998E-18
  -7.010000        1.0803997E-18
  -6.820000        1.0803987E-18
  -6.630000        1.0803977E-18
  -6.440000        1.0803963E-18
  -6.250000        1.0803948E-18
  -6.060000        1.0803946E-18
  -5.870000        1.0803950E-18
  -5.680000        1.0803962E-18
  -5.490000        1.0803975E-18
  -5.300000        1.0803991E-18
  -5.110000        1.0803995E-18
  -4.920000        1.0803990E-18
  -4.730000        1.0803971E-18
  -4.540000        1.0803948E-18
  -4.350000        1.0803923E-18
  -4.160000        1.0803907E-18
  -3.970000        1.0803909E-18
  -3.780000        1.0803920E-18
  -3.590000        1.0803937E-18
  -3.400000        1.0803961E-18
  -3.210000        1.0803976E-18
  -3.020000        1.0803976E-18
  -2.830000        1.0803970E-18
  -2.640000        1.0803955E-18
  -2.450000        1.0803940E-18
  -2.260000        1.0803934E-18
  -2.070000        1.0803935E-18
  -1.880000        1.0803952E-18
  -1.690000        1.0803971E-18
  -1.500000        1.0803995E-18
  -1.310000        1.0804012E-18
  -1.120000        1.0804020E-18
 -0.9300000        1.0804020E-18
 -0.7400000        1.0804009E-18
 -0.5500000        1.0803992E-18
 -0.3600000        1.0803977E-18
 -0.1700000        1.0803975E-18
  2.0000000E-02    1.0803982E-18
  0.2100000        1.0804001E-18
  0.4000000        1.0804021E-18
  0.5900000        1.0804033E-18
  0.7800000        1.0804029E-18
  0.9700000        1.0804012E-18
   1.160000        1.0803978E-18
   1.350000        1.0803941E-18
   1.540000        1.0803902E-18
   1.730000        1.0803878E-18
   1.920000        1.0803872E-18
   2.110000        1.0803887E-18
   2.300000        1.0803908E-18
   2.490000        1.0803938E-18
   2.680000        1.0803957E-18
   2.870000        1.0803961E-18
   3.060000        1.0803953E-18
   3.250000        1.0803936E-18
   3.440000        1.0803917E-18
   3.630000        1.0803902E-18
   3.820000        1.0803895E-18
   4.010000        1.0803903E-18
   4.200000        1.0803927E-18
   4.390000        1.0803960E-18
   4.580000        1.0803992E-18
   4.770000        1.0804020E-18
   4.960000        1.0804037E-18
   5.150000        1.0804034E-18
   5.340000        1.0804015E-18
   5.530000        1.0803986E-18
   5.720000        1.0803952E-18
   5.910000        1.0803930E-18
   6.100000        1.0803925E-18
   6.290000        1.0803937E-18
   6.480000        1.0803961E-18
   6.670000        1.0803990E-18
   6.860000        1.0804011E-18
   7.050000        1.0804022E-18
   7.240000        1.0804021E-18
   7.430000        1.0804006E-18
   7.620000        1.0803990E-18
   7.810000        1.0803971E-18
   8.000000        1.0803962E-18
   8.190000        1.0803966E-18
   8.380000        1.0803982E-18
   8.570000        1.0804001E-18
   8.760000        1.0804021E-18
   8.950000        1.0804027E-18
   9.140000        1.0804022E-18
   9.330000        1.0804005E-18
   9.520000        1.0803983E-18
   9.710000        1.0803960E-18
   9.900000        1.0803938E-18
   10.09000        1.0803933E-18
   10.28000        1.0803934E-18
   10.47000        1.0803949E-18
   10.66000        1.0803959E-18
   10.85000        1.0803970E-18
   11.04000        1.0803973E-18
   11.23000        1.0803968E-18
   11.42000        1.0803958E-18
   11.61000        1.0803948E-18
   11.80000        1.0803949E-18
   11.99000        1.0803953E-18
   12.18000        1.0803967E-18
   12.37000        1.0803986E-18
   12.56000        1.0803992E-18
   12.75000        1.0803985E-18
   12.94000        1.0803972E-18
   13.13000        1.0803953E-18
   13.32000        1.0803934E-18
   13.51000        1.0803921E-18
   13.70000        1.0803921E-18
   13.89000        1.0803933E-18
   14.08000        1.0803958E-18
   14.27000        1.0803983E-18
   14.46000        1.0803999E-18
   14.65000        1.0804010E-18
   14.84000        1.0804006E-18
   15.03000        1.0803988E-18
   15.22000        1.0803961E-18
   15.41000        1.0803929E-18
   15.60000        1.0803904E-18
   15.79000        1.0803899E-18
   15.98000        1.0803906E-18
   16.17000        1.0803931E-18
   16.36000        1.0803960E-18
   16.55000        1.0803986E-18
   16.74000        1.0804005E-18
   16.93000        1.0804013E-18
   17.12000        1.0804017E-18
   17.31000        1.0804016E-18
   17.50000        1.0804017E-18
   17.69000        1.0804025E-18
   17.88000        1.0804032E-18
   18.07000        1.0804049E-18
   18.26000        1.0804057E-18
   18.45000        1.0804044E-18
   18.64000        1.0804002E-18
   18.83000        1.0803932E-18
   19.02000        1.0803837E-18
   19.21000        1.0803729E-18
   19.40000        1.0803646E-18
   19.59000        1.0803610E-18
   19.78000        1.0803649E-18
   19.97000        1.0803778E-18
   20.16000        1.0804001E-18
   20.35000        1.0804282E-18
   20.54000        1.0804573E-18
   20.73000        1.0804817E-18
   20.92000        1.0804939E-18
   21.11000        1.0804886E-18
   21.30000        1.0804609E-18
   21.49000        1.0804094E-18
   21.68000        1.0803363E-18
   21.87000        1.0802473E-18
   22.06000        1.0801528E-18
   22.25000        1.0800663E-18
   22.44000        1.0800062E-18
   22.63000        1.0799935E-18
   22.82000        1.0800463E-18
   23.01000        1.0801773E-18
   23.20000        1.0803879E-18
   23.39000        1.0806669E-18
   23.58000        1.0809895E-18
   23.77000        1.0813179E-18
   23.96000        1.0816082E-18
   24.15000        1.0818159E-18
   24.34000        1.0819030E-18
   24.53000        1.0818431E-18
   24.72000        1.0816233E-18
   24.91000        1.0812422E-18
   25.10000        1.0807069E-18
   25.29000        1.0800275E-18
   25.48000        1.0792179E-18
   25.67000        1.0782983E-18
   25.86000        1.0773025E-18
   26.05000        1.0762896E-18
   26.24000        1.0753520E-18
   26.43000        1.0746188E-18
   26.62000        1.0742513E-18
   26.81000        1.0744250E-18
   27.00000        1.0753042E-18
   27.19000        1.0770098E-18
   27.38000        1.0795837E-18
   27.57000        1.0829626E-18
   27.76000        1.0869643E-18
   27.95000        1.0912895E-18
   28.14000        1.0955412E-18
   28.33000        1.0992600E-18
   28.52000        1.1019691E-18
   28.71000        1.1032228E-18
   28.90000        1.1026585E-18
   29.09000        1.1000385E-18
   29.28000        1.0952797E-18
   29.47000        1.0884749E-18
   29.66000        1.0798915E-18
   29.85000        1.0699530E-18
   30.04000        1.0592046E-18
   30.23000        1.0482689E-18
   30.42000        1.0377988E-18
   30.61000        1.0284411E-18
   30.80000        1.0208266E-18
   30.99000        1.0155880E-18
   31.18000        1.0133962E-18
   31.37000        1.0150006E-18
   31.56000        1.0212300E-18
   31.75000        1.0329320E-18
   31.94000        1.0508255E-18
   32.13000        1.0752729E-18
   32.32000        1.1060139E-18
   32.51000        1.1419253E-18
   32.70000        1.1808889E-18
   32.89000        1.2198333E-18
   33.08000        1.2549756E-18
   33.27000        1.2822322E-18
   33.46000        1.2977353E-18
   33.65000        1.2983346E-18
   33.84000        1.2819883E-18
   34.03000        1.2479782E-18
   34.22000        1.1969370E-18
   34.41000        1.1307313E-18
   34.60000        1.0522703E-18
   34.79000        9.6531088E-19
   34.98000        8.7429517E-19
   35.17000        7.8421530E-19
   35.36000        7.0047459E-19
   35.55000        6.2871631E-19
   35.74000        5.7459476E-19
   35.93000        5.4351257E-19
   36.12000        5.4035258E-19
   36.31000        5.6921126E-19
   36.50000        6.3312507E-19
   36.69000        7.3372942E-19
   36.88000        8.7080736E-19
   37.07000        1.0417324E-18
   37.26000        1.2409085E-18
   37.45000        1.4594071E-18
   37.64000        1.6850371E-18
   37.83000        1.9030198E-18
   38.02000        2.0972709E-18
   38.21000        2.2520670E-18
   38.40000        2.3537000E-18
   38.59000        2.3916862E-18
   38.78000        2.3592335E-18
   38.97000        2.2529765E-18
   39.16000        2.0723089E-18
   39.35000        1.8188246E-18
   39.54000        1.4963720E-18
   39.73000        1.1118985E-18
   39.92000        6.7683723E-19
   40.11000        2.0839648E-19
   40.30000       -2.7002691E-19
   40.49000       -7.2986586E-19
   40.68000       -1.1398775E-18
   40.87000       -1.4695399E-18
   41.06000       -1.6923750E-18
   41.25000       -1.7881957E-18
   41.44000       -1.7437100E-18
   41.63000       -1.5516056E-18
   41.82000       -1.2089254E-18
   42.01000       -7.1583916E-19
   42.20000       -7.5734382E-20
   42.39000        7.0309390E-19
   42.58000        1.6046490E-18
   42.77000        2.6024066E-18
   42.96000        3.6575925E-18
   43.15000        4.7193065E-18
   43.34000        5.7265135E-18
   43.53000        6.6113395E-18
   43.72000        7.3029080E-18
   43.91000        7.7312543E-18
   44.10000        7.8314408E-18
   44.29000        7.5484582E-18
   44.48000        6.8434898E-18
   44.67000        5.7014449E-18
   44.86000        4.1386336E-18
   45.05000        2.2085218E-18
   45.24000        3.2053933E-21
   45.43000       -2.3510717E-18
   45.62000       -4.7045335E-18
   45.81000       -6.8989804E-18
   46.00000       -8.7844017E-18
   46.19000       -1.0233689E-17
   46.38000       -1.1152828E-17
   46.57000       -1.1485468E-17
   46.76000       -1.1212362E-17
   46.95000       -1.0347220E-17
   47.14000       -8.9306406E-18
   47.33000       -7.0232490E-18
   47.52000       -4.6984438E-18
   47.71000       -2.0348837E-18
   47.90000        8.9069712E-19
   48.09000        4.0089135E-18
   48.28000        7.2592312E-18
   48.47000        1.0585622E-17
   48.66000        1.3925816E-17
   48.85000        1.7195902E-17
   49.04000        2.0274371E-17
   49.23000        2.2990977E-17
   49.42000        2.5125522E-17
   49.61000        2.6419515E-17
   49.80000        2.6600606E-17
   49.99000        2.5416683E-17
   50.18000        2.2674369E-17
   50.37000        1.8276084E-17
   50.56000        1.2250128E-17
   50.75000        4.7692513E-18
   50.94000       -3.8458654E-18
   51.13000       -1.3140765E-17
   51.32000       -2.2559909E-17
   51.51000       -3.1496199E-17
   51.70000       -3.9351705E-17
   51.89000       -4.5599966E-17
   52.08000       -4.9837639E-17
   52.27000       -5.1813859E-17
   52.46000       -5.1430401E-17
   52.65000       -4.8713867E-17
   52.84000       -4.3769961E-17
   53.03000       -3.6736176E-17
   53.22000       -2.7750141E-17
   53.41000       -1.6945304E-17
   53.60000       -4.4755380E-18
   53.79000        9.4406620E-18
   53.98000        2.4473257E-17
   54.17000        4.0148621E-17
   54.36000        5.5844326E-17
   54.55000        7.0812742E-17
   54.74000        8.4226031E-17
   54.93000        9.5230134E-17
   55.12000        1.0299657E-16
   55.31000        1.0676734E-16
   55.50000        1.0589576E-16
   55.69000        9.9890913E-17
   55.88000        8.8472141E-17
   56.07000        7.1633199E-17
   56.26000        4.9705978E-17
   56.45000        2.3405641E-17
   56.64000       -6.1632359E-18
   56.83000       -3.7554877E-17
   57.02000       -6.9089030E-17
   57.21000       -9.9006200E-17
   57.40000       -1.2564874E-16
   57.59000       -1.4763700E-16
   57.78000       -1.6400840E-16
   57.97000       -1.7429138E-16
   58.16000       -1.7849590E-16
   58.35000       -1.7701584E-16
   58.54000       -1.7045469E-16
   58.73000       -1.5940279E-16
   58.92000       -1.4421003E-16
   59.11000       -1.2480684E-16
   59.30000       -1.0062634E-16
   59.49000       -7.0667158E-17
   59.68000       -3.3709857E-17
   59.87000        1.1334128E-17
   60.06000        6.4997570E-17
   60.25000        1.2683931E-16
   60.44000        1.9512509E-16
   60.63000        2.6668883E-16
   60.82000        3.3702554E-16
   61.01000        4.0062626E-16
   61.20000        4.5151843E-16
   61.39000        4.8393877E-16
   61.58000        4.9303654E-16
   61.77000        4.7549883E-16
   61.96000        4.2999628E-16
   62.15000        3.5737771E-16
   62.34000        2.6058002E-16
   62.53000        1.4427199E-16
   62.72000        1.4299476E-17
   62.91000       -1.2296200E-16
   63.10000       -2.6122279E-16
   63.29000       -3.9474930E-16
   63.48000       -5.1861498E-16
   63.67000       -6.2871560E-16
   63.86000       -7.2159669E-16
   64.05000       -7.9418852E-16
   64.24000       -8.4356223E-16
   64.43000       -8.6681074E-16
   64.62000       -8.6111037E-16
   64.81000       -8.2396702E-16
   65.00000       -7.5359733E-16
   65.19000       -6.4935859E-16
   65.38000       -5.1213655E-16
   65.57000       -3.4460659E-16
   65.76000       -1.5131586E-16
   65.95000        6.1439826E-17
   66.14000        2.8593580E-16
   66.33000        5.1350060E-16
   66.52000        7.3510056E-16
   66.71000        9.4194849E-16
   66.90000        1.1260452E-15
   67.09000        1.2805706E-15
   67.28000        1.4000711E-15
   67.47000        1.4804358E-15
   67.66000        1.5187099E-15
   67.85000        1.5128469E-15
   68.04000        1.4615110E-15
   68.23000        1.3640224E-15
   68.42000        1.2204827E-15
   68.61000        1.0320362E-15
   68.80000        8.0116998E-16
   68.99000        5.3192774E-16
   69.18000        2.2994374E-16
   69.37000       -9.7729431E-17
   69.56000       -4.4294516E-16
   69.75000       -7.9681972E-16
   69.94000       -1.1499965E-15
   70.13000       -1.4927318E-15
   70.32000       -1.8148064E-15
   70.51000       -2.1053612E-15
   70.70000       -2.3528201E-15
   70.89000       -2.5450793E-15
   71.08000       -2.6700742E-15
   71.27000       -2.7167462E-15
   71.46000       -2.6762925E-15
   71.65000       -2.5434885E-15
   71.84000       -2.3178104E-15
   72.03000       -2.0041022E-15
   72.22000       -1.6126003E-15
   72.41000       -1.1582527E-15
   72.60000       -6.5939990E-16
   72.79000       -1.3602138E-16
   72.98000        3.9217059E-16
   73.17000        9.0747468E-16
   73.36000        1.3954906E-15
   73.55000        1.8457693E-15
   73.74000        2.2517479E-15
   73.93000        2.6100480E-15
   74.12000        2.9193283E-15
   74.31000        3.1789598E-15
   74.50000        3.3878055E-15
   74.69000        3.5433415E-15
   74.88000        3.6412646E-15
   75.07000        3.6756258E-15
   75.26000        3.6394211E-15
   75.45000        3.5254989E-15
   75.64000        3.3276047E-15
   75.83000        3.0413815E-15
   76.02000        2.6651896E-15
   76.21000        2.2006536E-15
   76.40000        1.6529236E-15
   76.59000        1.0306894E-15
   76.78000        3.4603003E-16
   76.97000       -3.8580728E-16
   77.16000       -1.1466449E-15
   77.35000       -1.9156332E-15
   77.54000       -2.6696071E-15
   77.73000       -3.3836916E-15
   77.92000       -4.0322881E-15
   78.11000       -4.5905188E-15
   78.30000       -5.0360712E-15
   78.49000       -5.3512175E-15
   78.68000       -5.5246398E-15
   78.87000       -5.5526508E-15
   79.06000       -5.4394563E-15
   79.25000       -5.1963134E-15
   79.44000       -4.8396794E-15
   79.63000       -4.3887115E-15
   79.82000       -3.8626494E-15
   80.01000       -3.2786310E-15
   80.20000       -2.6503648E-15
   80.39000       -1.9878660E-15
   80.58000       -1.2981538E-15
   80.77000       -5.8661351E-16
   80.96000        1.4143104E-16
   81.15000        8.7937563E-16
   81.34000        1.6185744E-15
   81.53000        2.3483091E-15
   81.72000        3.0564686E-15
   81.91000        3.7307299E-15
   82.10000        4.3599306E-15
   82.29000        4.9352849E-15
   82.48000        5.4511047E-15
   82.67000        5.9048035E-15
   82.86000        6.2961090E-15
   83.05000        6.6255900E-15
   83.24000        6.8927958E-15
   83.43000        7.0944312E-15
   83.62000        7.2230311E-15
   83.81000        7.2665169E-15
   84.00000        7.2088272E-15
   84.19000        7.0315453E-15
   84.38000        6.7161763E-15
   84.57000        6.2465626E-15
   84.76000        5.6108657E-15
   84.95000        4.8026747E-15
   85.14000        3.8210541E-15
   85.33000        2.6696482E-15
   85.52000        1.3552584E-15
   85.71000       -1.1352200E-16
   85.90000       -1.7270501E-15
   86.09000       -3.4743240E-15
   86.28000       -5.3415185E-15
   86.47000       -7.3096165E-15
   86.66000       -9.3516740E-15
   86.85000       -1.1430447E-14
   87.04000       -1.3497093E-14
   87.23000       -1.5491435E-14
   87.42000       -1.7343916E-14
   87.61000       -1.8978988E-14
   87.80000       -2.0319255E-14
   87.99000       -2.1289587E-14
   88.18000       -2.1820446E-14
   88.37000       -2.1849964E-14
   88.56000       -2.1324761E-14
   88.75000       -2.0200010E-14
   88.94000       -1.8439504E-14
   89.13000       -1.6016629E-14
   89.32000       -1.2916827E-14
   89.51000       -9.1417242E-15
   89.70000       -4.7144062E-15
   89.89000        3.1515677E-16
   90.08000        5.8658285E-15
   90.27000        1.1823502E-14
   90.46000        1.8042615E-14
   90.65000        2.4351340E-14
   90.84000        3.0560031E-14
   91.03000        3.6471883E-14
   91.22000        4.1894446E-14
   91.41000        4.6650380E-14
   91.60000        5.0586183E-14
   91.79000        5.3577893E-14
   91.98000        5.5533465E-14
   92.17000        5.6391977E-14
   92.36000        5.6120463E-14
   92.55000        5.4709492E-14
   92.74000        5.2168766E-14
   92.93000        4.8523746E-14
   93.12000        4.3814165E-14
   93.31000        3.8094524E-14
   93.50000        3.1436188E-14
   93.69000        2.3930217E-14
   93.88000        1.5689808E-14
   94.07000        6.8512442E-15
   94.26000       -2.4272652E-15
   94.45000       -1.1969034E-14
   94.64000       -2.1584221E-14
   94.83000       -3.1076165E-14
   95.02000       -4.0247794E-14
   95.21000       -4.8907320E-14
   95.40000       -5.6872869E-14
   95.59000       -6.3976134E-14
   95.78000       -7.0065610E-14
   95.97000       -7.5010026E-14
   96.16000       -7.8702466E-14
   96.35000       -8.1065159E-14
   96.54000       -8.2054528E-14
   96.73000       -8.1665428E-14
   96.92000       -7.9933564E-14
   97.11000       -7.6934891E-14
   97.30000       -7.2781611E-14
   97.49000       -6.7615015E-14
   97.68000       -6.1596012E-14
   97.87000       -5.4894942E-14
   98.06000       -4.7682185E-14
   98.25000       -4.0121098E-14
   98.44000       -3.2363801E-14
   98.63000       -2.4549747E-14
   98.82000       -1.6806167E-14
   99.01000       -9.2489874E-15
   99.20000       -1.9829130E-15
   99.39000        4.9002135E-15
   99.58000        1.1324900E-14
   99.77000        1.7236616E-14
   99.96000        2.2606288E-14
   100.1500        2.7433191E-14
   100.3400        3.1745023E-14
   100.5300        3.5594659E-14
   100.7200        3.9053789E-14
   100.9100        4.2204270E-14
   101.1000        4.5128557E-14
   101.2900        4.7900520E-14
   101.4800        5.0577862E-14
   101.6700        5.3196922E-14
   101.8600        5.5770245E-14
   102.0500        5.8286987E-14
   102.2400        6.0715755E-14
   102.4300        6.3009358E-14
   102.6200        6.5110352E-14
   102.8100        6.6956457E-14
   103.0000        6.8484315E-14
   103.1900        6.9630696E-14
   103.3800        7.0330508E-14
   103.5700        7.0511861E-14
   103.7600        7.0089157E-14
   103.9500        6.8955848E-14
   104.1400        6.6978778E-14
   104.3300        6.3995298E-14
   104.5200        5.9813821E-14
   104.7100        5.4217363E-14
   104.9000        4.6968509E-14
   105.0900        3.7814024E-14
   105.2800        2.6487760E-14
   105.4700        1.2711168E-14
   105.6600       -3.8081208E-15
   105.8500       -2.3377930E-14
   106.0400       -4.6321782E-14
   106.2300       -7.2975717E-14
   106.4200       -1.0368115E-13
   106.6100       -1.3877433E-13
   106.8000       -1.7857382E-13
   106.9900       -2.2336919E-13
   107.1800       -2.7341332E-13
   107.3700       -3.2892024E-13
   107.5600       -3.9007011E-13
   107.7500       -4.5702043E-13
   107.9400       -5.2992143E-13
   108.1300       -6.0893315E-13
   108.3200       -6.9424154E-13
   108.5100       -7.8607026E-13
   108.7000       -8.8468767E-13
   108.8900       -9.9040763E-13
   109.0800       -1.1035872E-12
   109.2700       -1.2246208E-12
   109.4600       -1.3539368E-12
   109.6500       -1.4919942E-12
   109.8400       -1.6392853E-12
   110.0300       -1.7963415E-12
   110.2200       -1.9637421E-12
   110.4100       -2.1421268E-12
   110.6000       -2.3322026E-12
   110.7900       -2.5347543E-12
   110.9800       -2.7506445E-12
   111.1700       -2.9808109E-12
   111.3600       -3.2262578E-12
   111.5500       -3.4880428E-12
   111.7400       -3.7672573E-12
   111.9300       -4.0650074E-12
   112.1200       -4.3823977E-12
   112.3100       -4.7205113E-12
   112.5000       -5.0804027E-12
   112.6900       -5.4630857E-12
   112.8800       -5.8695293E-12
   113.0700       -6.3006531E-12
   113.2600       -6.7573195E-12
   113.4500       -7.2403251E-12
   113.6400       -7.7503863E-12
   113.8300       -8.2881254E-12
   114.0200       -8.8540555E-12
   114.2100       -9.4485721E-12
   114.4000       -1.0071955E-11
   114.5900       -1.0724378E-11
   114.7800       -1.1405931E-11
   114.9700       -1.2116641E-11
   115.1600       -1.2856505E-11
   115.3500       -1.3625512E-11
   115.5400       -1.4423661E-11
   115.7300       -1.5250965E-11
   115.9200       -1.6107457E-11
   116.1100       -1.6993186E-11
   116.3000       -1.7908217E-11
   116.4900       -1.8852623E-11
   116.6800       -1.9826503E-11
   116.8700       -2.0829980E-11
   117.0600       -2.1863227E-11
   117.2500       -2.2926466E-11
   117.4400       -2.4019993E-11
   117.6300       -2.5144184E-11
   117.8200       -2.6299504E-11
   118.0100       -2.7486515E-11
   118.2000       -2.8705871E-11
   118.3900       -2.9958338E-11
   118.5800       -3.1244774E-11
   118.7700       -3.2566127E-11
   118.9600       -3.3923434E-11
   119.1500       -3.5317790E-11
   119.3400       -3.6750325E-11
   119.5300       -3.8222155E-11
   119.7200       -3.9734337E-11
   119.9100       -4.1287820E-11
   120.1000       -4.2883395E-11
   120.2900       -4.4521626E-11
   120.4800       -4.6202854E-11
   120.6700       -4.7927159E-11
   120.8600       -4.9694374E-11
   121.0500       -5.1504120E-11
   121.2400       -5.3355837E-11
   121.4300       -5.5248812E-11
   121.6200       -5.7182259E-11
   121.8100       -5.9155320E-11
   122.0000       -6.1167127E-11
   122.1900       -6.3216828E-11
   122.3800       -6.5303561E-11
   122.5700       -6.7426509E-11
   122.7600       -6.9584831E-11
   122.9500       -7.1777723E-11
   123.1400       -7.4004393E-11
   123.3300       -7.6264037E-11
   123.5200       -7.8555863E-11
   123.7100       -8.0879088E-11
   123.9000       -8.3232941E-11
   124.0900       -8.5616667E-11
   124.2800       -8.8029466E-11
   124.4700       -9.0470534E-11
   124.6600       -9.2939004E-11
   124.8500       -9.5433883E-11
   125.0400       -9.7954082E-11
   125.2300       -1.0049832E-10
   125.4200       -1.0306522E-10
   125.6100       -1.0565323E-10
   125.8000       -1.0826069E-10
   125.9900       -1.1088586E-10
   126.1800       -1.1352690E-10
   126.3700       -1.1618193E-10
   126.5600       -1.1884904E-10
   126.7500       -1.2152619E-10
   126.9400       -1.2421134E-10
   127.1300       -1.2690225E-10
   127.3200       -1.2959669E-10
   127.5100       -1.3229226E-10
   127.7000       -1.3498651E-10
   127.8900       -1.3767690E-10
   128.0800       -1.4036090E-10
   128.2700       -1.4303597E-10
   128.4600       -1.4569962E-10
   128.6500       -1.4834940E-10
   128.8400       -1.5098300E-10
   129.0300       -1.5359819E-10
   129.2200       -1.5619286E-10
   129.4100       -1.5876502E-10
   129.6000       -1.6131282E-10
   129.7900       -1.6383454E-10
   129.9800       -1.6632859E-10
   130.1700       -1.6879349E-10
   130.3600       -1.7122784E-10
   130.5500       -1.7363035E-10
   130.7400       -1.7599981E-10
   130.9300       -1.7833508E-10
   131.1200       -1.8063501E-10
   131.3100       -1.8289845E-10
   131.5000       -1.8512419E-10
   131.6900       -1.8731094E-10
   131.8800       -1.8945731E-10
   132.0700       -1.9156171E-10
   132.2600       -1.9362245E-10
   132.4500       -1.9563762E-10
   132.6400       -1.9760515E-10
   132.8300       -1.9952280E-10
   133.0200       -2.0138816E-10
   133.2100       -2.0319862E-10
   133.4000       -2.0495149E-10
   133.5900       -2.0664391E-10
   133.7800       -2.0827289E-10
   133.9700       -2.0983522E-10
   134.1600       -2.1132766E-10
   134.3500       -2.1274676E-10
   134.5400       -2.1408891E-10
   134.7300       -2.1535047E-10
   134.9200       -2.1652768E-10
   135.1100       -2.1761688E-10
   135.3000       -2.1861446E-10
   135.4900       -2.1951689E-10
   135.6800       -2.2032091E-10
   135.8700       -2.2102341E-10
   136.0600       -2.2162149E-10
   136.2500       -2.2211251E-10
   136.4400       -2.2249400E-10
   136.6300       -2.2276378E-10
   136.8200       -2.2291986E-10
   137.0100       -2.2296054E-10
   137.2000       -2.2288435E-10
   137.3900       -2.2269010E-10
   137.5800       -2.2237683E-10
   137.7700       -2.2194371E-10
   137.9600       -2.2139011E-10
   138.1500       -2.2071536E-10
   138.3400       -2.1991882E-10
   138.5300       -2.1899969E-10
   138.7200       -2.1795697E-10
   138.9100       -2.1678946E-10
   139.1000       -2.1549566E-10
   139.2900       -2.1407376E-10
   139.4800       -2.1252158E-10
   139.6700       -2.1083675E-10
   139.8600       -2.0901648E-10
   140.0500       -2.0705776E-10
   140.2400       -2.0495725E-10
   140.4300       -2.0271138E-10
   140.6200       -2.0031640E-10
   140.8100       -1.9776837E-10
   141.0000       -1.9506316E-10
   141.1900       -1.9219666E-10
   141.3800       -1.8916470E-10
   141.5700       -1.8596319E-10
   141.7600       -1.8258819E-10
   141.9500       -1.7903595E-10
   142.1400       -1.7530297E-10
   142.3300       -1.7138604E-10
   142.5200       -1.6728231E-10