  -30.00000       -4.5121410E-19
  -29.81000       -4.5121410E-19
  -29.62000       -4.5121410E-19
  -29.43000       -4.5121410E-19
  -29.24000       -4.5121410E-19
  -29.05000       -4.5121446E-19
  -28.86000       -4.5121436E-19
  -28.67000       -4.5121400E-19
  -28.48000       -4.5121369E-19
  -28.29000       -4.5121394E-19
  -28.10000       -4.5121436E-19
  -27.91000       -4.5121456E-19
  -27.72000       -4.5121462E-19
  -27.53000       -4.5121410E-19
  -27.34000       -4.5121379E-19
  -27.15000       -4.5121353E-19
  -26.96000       -4.5121363E-19
  -26.77000       -4.5121420E-19
  -26.58000       -4.5121462E-19
  -26.39000       -4.5121446E-19
  -26.20000       -4.5121400E-19
  -26.01000       -4.5121353E-19
  -25.82000       -4.5121363E-19
  -25.63000       -4.5121369E-19
  -25.44000       -4.5121420E-19
  -25.25000       -4.5121369E-19
  -25.06000       -4.5121363E-19
  -24.87000       -4.5121410E-19
  -24.68000       -4.5121503E-19
  -24.49000       -4.5121503E-19
  -24.30000       -4.5121456E-19
  -24.11000       -4.5121374E-19
  -23.92000       -4.5121400E-19
  -23.73000       -4.5121555E-19
  -23.54000       -4.5121591E-19
  -23.35000       -4.5121508E-19
  -23.16000       -4.5121291E-19
  -22.97000       -4.5121089E-19
  -22.78000       -4.5121074E-19
  -22.59000       -4.5121374E-19
  -22.40000       -4.5121751E-19
  -22.21000       -4.5121870E-19
  -22.02000       -4.5121658E-19
  -21.83000       -4.5121229E-19
  -21.64000       -4.5120991E-19
  -21.45000       -4.5121136E-19
  -21.26000       -4.5121482E-19
  -21.07000       -4.5121689E-19
  -20.88000       -4.5121591E-19
  -20.69000       -4.5121198E-19
  -20.50000       -4.5120929E-19
  -20.31000       -4.5121058E-19
  -20.12000       -4.5121446E-19
  -19.93000       -4.5121787E-19
  -19.74000       -4.5121710E-19
  -19.55000       -4.5121332E-19
  -19.36000       -4.5121007E-19
  -19.17000       -4.5121146E-19
  -18.98000       -4.5121617E-19
  -18.79000       -4.5121999E-19
  -18.60000       -4.5121875E-19
  -18.41000       -4.5121374E-19
  -18.22000       -4.5120888E-19
  -18.03000       -4.5120883E-19
  -17.84000       -4.5121343E-19
  -17.65000       -4.5121813E-19
  -17.46000       -4.5121855E-19
  -17.27000       -4.5121472E-19
  -17.08000       -4.5120976E-19
  -16.89000       -4.5120955E-19
  -16.70000       -4.5121555E-19
  -16.51000       -4.5122180E-19
  -16.32000       -4.5122222E-19
  -16.13000       -4.5121668E-19
  -15.94000       -4.5120981E-19
  -15.75000       -4.5120722E-19
  -15.56000       -4.5121007E-19
  -15.37000       -4.5121601E-19
  -15.18000       -4.5121891E-19
  -14.99000       -4.5121622E-19
  -14.80000       -4.5121188E-19
  -14.61000       -4.5121043E-19
  -14.42000       -4.5121358E-19
  -14.23000       -4.5121767E-19
  -14.04000       -4.5121984E-19
  -13.85000       -4.5121736E-19
  -13.66000       -4.5121276E-19
  -13.47000       -4.5120996E-19
  -13.28000       -4.5121157E-19
  -13.09000       -4.5121643E-19
  -12.90000       -4.5121927E-19
  -12.71000       -4.5121730E-19
  -12.52000       -4.5121312E-19
  -12.33000       -4.5121079E-19
  -12.14000       -4.5121276E-19
  -11.95000       -4.5121663E-19
  -11.76000       -4.5121834E-19
  -11.57000       -4.5121555E-19
  -11.38000       -4.5121043E-19
  -11.19000       -4.5120743E-19
  -11.00000       -4.5120960E-19
  -10.81000       -4.5121493E-19
  -10.62000       -4.5121984E-19
  -10.43000       -4.5121973E-19
  -10.24000       -4.5121503E-19
  -10.05000       -4.5121157E-19
  -9.860000       -4.5121136E-19
  -9.670000       -4.5121420E-19
  -9.480000       -4.5121668E-19
  -9.290000       -4.5121513E-19
  -9.100000       -4.5121002E-19
  -8.910000       -4.5120448E-19
  -8.720000       -4.5120288E-19
  -8.530000       -4.5120676E-19
  -8.340000       -4.5121074E-19
  -8.150000       -4.5121182E-19
  -7.960000       -4.5120908E-19
  -7.770000       -4.5120603E-19
  -7.580000       -4.5120676E-19
  -7.390000       -4.5121245E-19
  -7.200000       -4.5121927E-19
  -7.010000       -4.5122160E-19
  -6.820000       -4.5121891E-19
  -6.630000       -4.5121394E-19
  -6.440000       -4.5121151E-19
  -6.250000       -4.5121441E-19
  -6.060000       -4.5121761E-19
  -5.870000       -4.5121767E-19
  -5.680000       -4.5121389E-19
  -5.490000       -4.5120831E-19
  -5.300000       -4.5120614E-19
  -5.110000       -4.5120955E-19
  -4.920000       -4.5121668E-19
  -4.730000       -4.5122123E-19
  -4.540000       -4.5121999E-19
  -4.350000       -4.5121472E-19
  -4.160000       -4.5121074E-19
  -3.970000       -4.5121136E-19
  -3.780000       -4.5121658E-19
  -3.590000       -4.5122196E-19
  -3.400000       -4.5122222E-19
  -3.210000       -4.5121818E-19
  -3.020000       -4.5121317E-19
  -2.830000       -4.5121322E-19
  -2.640000       -4.5121793E-19
  -2.450000       -4.5122310E-19
  -2.260000       -4.5122294E-19
  -2.070000       -4.5121756E-19
  -1.880000       -4.5121146E-19
  -1.690000       -4.5120846E-19
  -1.500000       -4.5121089E-19
  -1.310000       -4.5121601E-19
  -1.120000       -4.5121927E-19
 -0.9300000       -4.5121834E-19
 -0.7400000       -4.5121467E-19
 -0.5500000       -4.5121276E-19
 -0.3600000       -4.5121550E-19
 -0.1700000       -4.5122113E-19
  2.0000000E-02   -4.5122341E-19
  0.2100000       -4.5122030E-19
  0.4000000       -4.5121420E-19
  0.5900000       -4.5121027E-19
  0.7800000       -4.5121162E-19
  0.9700000       -4.5121606E-19
   1.160000       -4.5121865E-19
   1.350000       -4.5121663E-19
   1.540000       -4.5121089E-19
   1.730000       -4.5120655E-19
   1.920000       -4.5120728E-19
   2.110000       -4.5121229E-19
   2.300000       -4.5121674E-19
   2.490000       -4.5121627E-19
   2.680000       -4.5121188E-19
   2.870000       -4.5120893E-19
   3.060000       -4.5121198E-19
   3.250000       -4.5121917E-19
   3.440000       -4.5122547E-19
   3.630000       -4.5122615E-19
   3.820000       -4.5122061E-19
   4.010000       -4.5121343E-19
   4.200000       -4.5121136E-19
   4.390000       -4.5121467E-19
   4.580000       -4.5122020E-19
   4.770000       -4.5122144E-19
   4.960000       -4.5121736E-19
   5.150000       -4.5121095E-19
   5.340000       -4.5120733E-19
   5.530000       -4.5120779E-19
   5.720000       -4.5121033E-19
   5.910000       -4.5121084E-19
   6.100000       -4.5120800E-19
   6.290000       -4.5120319E-19
   6.480000       -4.5120159E-19
   6.670000       -4.5120598E-19
   6.860000       -4.5121379E-19
   7.050000       -4.5122020E-19
   7.240000       -4.5122041E-19
   7.430000       -4.5121663E-19
   7.620000       -4.5121296E-19
   7.810000       -4.5121234E-19
   8.000000       -4.5121498E-19
   8.190000       -4.5121622E-19
   8.380000       -4.5121358E-19
   8.570000       -4.5120877E-19
   8.760000       -4.5120624E-19
   8.950000       -4.5120836E-19
   9.140000       -4.5121358E-19
   9.330000       -4.5121891E-19
   9.520000       -4.5121922E-19
   9.710000       -4.5121467E-19
   9.900000       -4.5121084E-19
   10.09000       -4.5121126E-19
   10.28000       -4.5121565E-19
   10.47000       -4.5122010E-19
   10.66000       -4.5121932E-19
   10.85000       -4.5121343E-19
   11.04000       -4.5120748E-19
   11.23000       -4.5120572E-19
   11.42000       -4.5120965E-19
   11.61000       -4.5121446E-19
   11.80000       -4.5121575E-19
   11.99000       -4.5121312E-19
   12.18000       -4.5121089E-19
   12.37000       -4.5121229E-19
   12.56000       -4.5121855E-19
   12.75000       -4.5122578E-19
   12.94000       -4.5122749E-19
   13.13000       -4.5122206E-19
   13.32000       -4.5121405E-19
   13.51000       -4.5121053E-19
   13.70000       -4.5121234E-19
   13.89000       -4.5121725E-19
   14.08000       -4.5121911E-19
   14.27000       -4.5121570E-19
   14.46000       -4.5121089E-19
   14.65000       -4.5120883E-19
   14.84000       -4.5121317E-19
   15.03000       -4.5121963E-19
   15.22000       -4.5122134E-19
   15.41000       -4.5121653E-19
   15.60000       -4.5120841E-19
   15.79000       -4.5120412E-19
   15.98000       -4.5120650E-19
   16.17000       -4.5121281E-19
   16.36000       -4.5121813E-19
   16.55000       -4.5121715E-19
   16.74000       -4.5121120E-19
   16.93000       -4.5120738E-19
   17.12000       -4.5120965E-19
   17.31000       -4.5121575E-19
   17.50000       -4.5121994E-19
   17.69000       -4.5121953E-19
   17.88000       -4.5121550E-19
   18.07000       -4.5121193E-19
   18.26000       -4.5121188E-19
   18.45000       -4.5121291E-19
   18.64000       -4.5120877E-19
   18.83000       -4.5119812E-19
   19.02000       -4.5118530E-19
   19.21000       -4.5117987E-19
   19.40000       -4.5118737E-19
   19.59000       -4.5120697E-19
   19.78000       -4.5123214E-19
   19.97000       -4.5125520E-19
   20.16000       -4.5127216E-19
   20.35000       -4.5128488E-19
   20.54000       -4.5129366E-19
   20.73000       -4.5129687E-19
   20.92000       -4.5128441E-19
   21.11000       -4.5125122E-19
   21.30000       -4.5119849E-19
   21.49000       -4.5113402E-19
   21.68000       -4.5106872E-19
   21.87000       -4.5101294E-19
   22.06000       -4.5097778E-19
   22.25000       -4.5097401E-19
   22.44000       -4.5101656E-19
   22.63000       -4.5111789E-19
   22.82000       -4.5127821E-19
   23.01000       -4.5147580E-19
   23.20000       -4.5166879E-19
   23.39000       -4.5180915E-19
   23.58000       -4.5185713E-19
   23.77000       -4.5179189E-19
   23.96000       -4.5161414E-19
   24.15000       -4.5134066E-19
   24.34000       -4.5100110E-19
   24.53000       -4.5063404E-19
   24.72000       -4.5028559E-19
   24.91000       -4.5000647E-19
   25.10000       -4.4984176E-19
   25.29000       -4.4982180E-19
   25.48000       -4.4996061E-19
   25.67000       -4.5025638E-19
   25.86000       -4.5069303E-19
   26.05000       -4.5124724E-19
   26.24000       -4.5188717E-19
   26.43000       -4.5257445E-19
   26.62000       -4.5326814E-19
   26.81000       -4.5392963E-19
   27.00000       -4.5452582E-19
   27.19000       -4.5501603E-19
   27.38000       -4.5533180E-19
   27.57000       -4.5536350E-19
   27.76000       -4.5496810E-19
   27.95000       -4.5400583E-19
   28.14000       -4.5238818E-19
   28.33000       -4.5013282E-19
   28.52000       -4.4738234E-19
   28.71000       -4.4439865E-19
   28.90000       -4.4152730E-19
   29.09000       -4.3914414E-19
   29.28000       -4.3759654E-19
   29.47000       -4.3715162E-19
   29.66000       -4.3795248E-19
   29.85000       -4.3998590E-19
   30.04000       -4.4307557E-19
   30.23000       -4.4689953E-19
   30.42000       -4.5104184E-19
   30.61000       -4.5507750E-19
   30.80000       -4.5867129E-19
   30.99000       -4.6168786E-19
   31.18000       -4.6426194E-19
   31.37000       -4.6679829E-19
   31.56000       -4.6986449E-19
   31.75000       -4.7398013E-19
   31.94000       -4.7935189E-19
   32.13000       -4.8564384E-19
   32.32000       -4.9188740E-19
   32.51000       -4.9659100E-19
   32.70000       -4.9804229E-19
   32.89000       -4.9470415E-19
   33.08000       -4.8557642E-19
   33.27000       -4.7041410E-19
   33.46000       -4.4975526E-19
   33.65000       -4.2480977E-19
   33.84000       -3.9727918E-19
   34.03000       -3.6920987E-19
   34.22000       -3.4290080E-19
   34.41000       -3.2082311E-19
   34.60000       -3.0547744E-19
   34.79000       -2.9910972E-19
   34.98000       -3.0330317E-19
   35.17000       -3.1857287E-19
   35.36000       -3.4416245E-19
   35.55000       -3.7822053E-19
   35.74000       -4.1838521E-19
   35.93000       -4.6259972E-19
   36.12000       -5.0980749E-19
   36.31000       -5.6014763E-19
   36.50000       -6.1443684E-19
   36.69000       -6.7304507E-19
   36.88000       -7.3460256E-19
   37.07000       -7.9511490E-19
   37.26000       -8.4797128E-19
   37.45000       -8.8498348E-19
   37.64000       -8.9813306E-19
   37.83000       -8.8140054E-19
   38.02000       -8.3200049E-19
   38.21000       -7.5064035E-19
   38.40000       -6.4086226E-19
   38.59000       -5.0794918E-19
   38.78000       -3.5802254E-19
   38.97000       -1.9775636E-19
   39.16000       -3.4673986E-20
   39.35000        1.2245905E-19
   39.54000        2.6381013E-19
   39.73000        3.7963224E-19
   39.92000        4.6221291E-19
   40.11000        5.0779837E-19
   40.30000        5.1740189E-19
   40.49000        4.9569667E-19
   40.68000        4.4806084E-19
   40.87000        3.7683591E-19
   41.06000        2.7849320E-19
   41.25000        1.4327660E-19
   41.44000       -4.2078109E-20
   41.63000       -2.8930140E-19
   41.82000       -6.0314986E-19
   42.01000       -9.7776874E-19
   42.20000       -1.3963274E-18
   42.39000       -1.8339244E-18
   42.58000       -2.2622654E-18
   42.77000       -2.6538783E-18
   42.96000       -2.9840596E-18
   43.15000       -3.2301676E-18
   43.34000       -3.3695535E-18
   43.53000       -3.3784449E-18
   43.72000       -3.2338312E-18
   43.91000       -2.9188706E-18
   44.10000       -2.4302165E-18
   44.29000       -1.7840869E-18
   44.48000       -1.0177296E-18
   44.67000       -1.8445808E-19
   44.86000        6.5697791E-19
   45.05000        1.4554318E-18
   45.24000        2.1783580E-18
   45.43000        2.8170039E-18
   45.62000        3.3842899E-18
   45.81000        3.9065842E-18
   46.00000        4.4124932E-18
   46.19000        4.9220423E-18
   46.38000        5.4383924E-18
   46.57000        5.9423965E-18
   46.76000        6.3890835E-18
   46.95000        6.7054276E-18
   47.14000        6.7902880E-18
   47.33000        6.5191729E-18
   47.52000        5.7570141E-18
   47.71000        4.3805678E-18
   47.90000        2.3084448E-18
   48.09000       -4.6730586E-19
   48.28000       -3.8568830E-18
   48.47000       -7.6642221E-18
   48.66000       -1.1599263E-17
   48.85000       -1.5310374E-17
   49.04000       -1.8430800E-17
   49.23000       -2.0629765E-17
   49.42000       -2.1658669E-17
   49.61000       -2.1385372E-17
   49.80000       -1.9812959E-17
   49.99000       -1.7081988E-17
   50.18000       -1.3456218E-17
   50.37000       -9.2918199E-18
   50.56000       -4.9903848E-18
   50.75000       -9.3843982E-19
   50.94000        2.5595206E-18
   51.13000        5.3423708E-18
   51.32000        7.4327902E-18
   51.51000        9.0427641E-18
   51.70000        1.0536433E-17
   51.89000        1.2353003E-17
   52.08000        1.4903328E-17
   52.27000        1.8461512E-17
   52.46000        2.3074804E-17
   52.65000        2.8510722E-17
   52.84000        3.4251908E-17
   53.03000        3.9540024E-17
   53.22000        4.3462796E-17
   53.41000        4.5074015E-17
   53.60000        4.3534221E-17
   53.79000        3.8257113E-17
   53.98000        2.9043059E-17
   54.17000        1.6176778E-17
   54.36000        4.6432295E-19
   54.55000       -1.6811311E-17
   54.74000       -3.4024271E-17
   54.93000       -4.9419191E-17
   55.12000       -6.1372639E-17
   55.31000       -6.8656044E-17
   55.50000       -7.0648821E-17
   55.69000       -6.7458478E-17
   55.88000       -5.9923253E-17
   56.07000       -4.9495358E-17
   56.26000       -3.8023997E-17
   56.45000       -2.7471305E-17
   56.64000       -1.9601264E-17
   56.83000       -1.5683641E-17
   57.02000       -1.6254215E-17
   57.21000       -2.0970638E-17
   57.40000       -2.8597348E-17
   57.59000       -3.7139946E-17
   57.78000       -4.4126843E-17
   57.97000       -4.7005789E-17
   58.16000       -4.3592101E-17
   58.35000       -3.2484627E-17
   58.54000       -1.3363480E-17
   58.73000        1.2895465E-17
   58.92000        4.4314587E-17
   59.11000        7.8095710E-17
   59.30000        1.1102724E-16
   59.49000        1.3993458E-16
   59.68000        1.6209288E-16
   59.87000        1.7553957E-16
   60.06000        1.7925324E-16
   60.25000        1.7319168E-16
   60.44000        1.5820099E-16
   60.63000        1.3581983E-16
   60.82000        1.0800936E-16
   61.01000        7.6848705E-17
   61.20000        4.4242576E-17
   61.39000        1.1694025E-17
   61.58000       -1.9810708E-17
   61.77000       -4.9778938E-17
   61.96000       -7.8057468E-17
   62.15000       -1.0459406E-16
   62.34000       -1.2918903E-16
   62.53000       -1.5131870E-16
   62.72000       -1.7009238E-16
   62.91000       -1.8436213E-16
   63.10000       -1.9295805E-16
   63.29000       -1.9498214E-16
   63.48000       -1.9007888E-16
   63.67000       -1.7861065E-16
   63.86000       -1.6169315E-16
   64.05000       -1.4108050E-16
   64.24000       -1.1891980E-16
   64.43000       -9.7412204E-17
   64.62000       -7.8430149E-17
   64.81000       -6.3145869E-17
   65.00000       -5.1731469E-17
   65.19000       -4.3194839E-17
   65.38000       -3.5407440E-17
   65.57000       -2.5357746E-17
   65.76000       -9.6227939E-18
   65.95000        1.4997784E-17
   66.14000        5.0788082E-17
   66.33000        9.8490688E-17
   66.52000        1.5687374E-16
   66.71000        2.2257802E-16
   66.90000        2.9028319E-16
   67.09000        3.5317637E-16
   67.28000        4.0366316E-16
   67.47000        4.3424404E-16
   67.66000        4.3846361E-16
   67.85000        4.1184118E-16
   68.04000        3.5268112E-16
   68.23000        2.6265499E-16
   68.42000        1.4704485E-16
   68.61000        1.4559007E-17
   68.80000       -1.2332376E-16
   68.99000       -2.5344912E-16
   69.18000       -3.6240749E-16
   69.37000       -4.3809637E-16
   69.56000       -4.7120771E-16
   69.75000       -4.5643673E-16
   69.94000       -3.9325500E-16
   70.13000       -2.8615941E-16
   70.32000       -1.4437723E-16
   70.51000        1.8939657E-17
   70.70000        1.8795985E-16
   70.89000        3.4574996E-16
   71.08000        4.7604549E-16
   71.27000        5.6503228E-16
   71.46000        6.0292440E-16
   71.65000        5.8511247E-16
   71.84000        5.1269253E-16
   72.03000        3.9226620E-16
   72.22000        2.3501715E-16
   72.41000        5.5194361E-17
   72.60000       -1.3176659E-16
   72.79000       -3.1120263E-16
   72.98000       -4.7098304E-16
   73.17000       -6.0284272E-16
   73.36000       -7.0312602E-16
   73.55000       -7.7287008E-16
   73.74000       -8.1722310E-16
   73.93000       -8.4427538E-16
   74.12000       -8.6344892E-16
   74.31000       -8.8366103E-16
   74.50000       -9.1152593E-16
   74.69000       -9.4987259E-16
   74.88000       -9.9682236E-16
   75.07000       -1.0455815E-15
   75.26000       -1.0849809E-15
   75.45000       -1.1006696E-15
   75.64000       -1.0767755E-15
   75.83000       -9.9780280E-16
   76.02000       -8.5054559E-16
   76.21000       -6.2583151E-16
   76.40000       -3.1995537E-16
   76.59000        6.4314332E-17
   76.78000        5.1725920E-16
   76.97000        1.0223579E-15
   77.16000        1.5571123E-15
   77.35000        2.0945310E-15
   77.54000        2.6051362E-15
   77.73000        3.0592719E-15
   77.92000        3.4294119E-15
   78.11000        3.6921827E-15
   78.30000        3.8299052E-15
   78.49000        3.8315823E-15
   78.68000        3.6933720E-15
   78.87000        3.4186646E-15
   79.06000        3.0178683E-15
   79.25000        2.5079413E-15
   79.44000        1.9116382E-15
   79.63000        1.2563797E-15
   79.82000        5.7269073E-16
   80.01000       -1.0776802E-16
   80.20000       -7.5443748E-16
   80.39000       -1.3401214E-15
   80.58000       -1.8430022E-15
   80.77000       -2.2481493E-15
   80.96000       -2.5483535E-15
   81.15000       -2.7442203E-15
   81.34000       -2.8435512E-15
   81.53000       -2.8601025E-15
   81.72000       -2.8118684E-15
   81.91000       -2.7190685E-15
   82.10000       -2.6020443E-15
   82.29000       -2.4793086E-15
   82.48000       -2.3659784E-15
   82.67000       -2.2728111E-15
   82.86000       -2.2059643E-15
   83.05000       -2.1674921E-15
   83.24000       -2.1564559E-15
   83.43000       -2.1704415E-15
   83.62000       -2.2072090E-15
   83.81000       -2.2661998E-15
   84.00000       -2.3496571E-15
   84.19000       -2.4631655E-15
   84.38000       -2.6154734E-15
   84.57000       -2.8175285E-15
   84.76000       -3.0807692E-15
   84.95000       -3.4148281E-15
   85.14000       -3.8249522E-15
   85.33000       -4.3095533E-15
   85.52000       -4.8583167E-15
   85.71000       -5.4512334E-15
   85.90000       -6.0587047E-15
   86.09000       -6.6426225E-15
   86.28000       -7.1581585E-15
   86.47000       -7.5558854E-15
   86.66000       -7.7839211E-15
   86.85000       -7.7899731E-15
   87.04000       -7.5233382E-15
   87.23000       -6.9370813E-15
   87.42000       -5.9905711E-15
   87.61000       -4.6524110E-15
   87.80000       -2.9036137E-15
   87.99000       -7.4060696E-16
   88.18000        1.8223903E-15
   88.37000        4.7520225E-15
   88.56000        7.9957344E-15
   88.75000        1.1483074E-14
   88.94000        1.5128281E-14
   89.13000        1.8834105E-14
   89.32000        2.2496729E-14
   89.51000        2.6011702E-14
   89.70000        2.9280645E-14
   89.89000        3.2218196E-14
   90.08000        3.4758458E-14
   90.27000        3.6859801E-14
   90.46000        3.8507138E-14
   90.65000        3.9710758E-14
   90.84000        4.0501565E-14
   91.03000        4.0923130E-14
   91.22000        4.1021596E-14
   91.41000        4.0834937E-14
   91.60000        4.0383004E-14
   91.79000        3.9659851E-14
   91.98000        3.8629148E-14
   92.17000        3.7223358E-14
   92.36000        3.5346651E-14
   92.55000        3.2881402E-14
   92.74000        2.9697737E-14
   92.93000        2.5665258E-14
   93.12000        2.0666028E-14
   93.31000        1.4607456E-14
   93.50000        7.4336907E-15
   93.69000       -8.6571505E-16
   93.88000       -1.0250970E-14
   94.07000       -2.0631412E-14
   94.26000       -3.1869032E-14
   94.45000       -4.3785335E-14
   94.64000       -5.6170427E-14
   94.83000       -6.8792702E-14
   95.02000       -8.1407923E-14
   95.21000       -9.3766493E-14
   95.40000       -1.0561848E-13
   95.59000       -1.1671623E-13
   95.78000       -1.2681521E-13
   95.97000       -1.3567406E-13
   96.16000       -1.4305480E-13
   96.35000       -1.4872446E-13
   96.54000       -1.5245856E-13
   96.73000       -1.5404685E-13
   96.92000       -1.5330098E-13
   97.11000       -1.5006335E-13
   97.30000       -1.4421601E-13
   97.49000       -1.3568907E-13
   97.68000       -1.2446763E-13
   97.87000       -1.1059668E-13
   98.06000       -9.4184013E-14
   98.25000       -7.5400366E-14
   98.44000       -5.4476934E-14
   98.63000       -3.1699991E-14
   98.82000       -7.4030053E-15
   99.01000        1.8043050E-14
   99.20000        4.4240107E-14
   99.39000        7.0772517E-14
   99.58000        9.7214378E-14
   99.77000        1.2313422E-13
   99.96000        1.4809673E-13
   100.1500        1.7166330E-13
   100.3400        1.9339321E-13
   100.5300        2.1284709E-13
   100.7200        2.2959453E-13
   100.9100        2.4322542E-13
   101.1000        2.5336395E-13
   101.2900        2.5968352E-13
   101.4800        2.6191977E-13
   101.6700        2.5988039E-13
   101.8600        2.5345069E-13
   102.0500        2.4259582E-13
   102.2400        2.2735991E-13
   102.4300        2.0786373E-13
   102.6200        1.8430170E-13
   102.8100        1.5693833E-13
   103.0000        1.2610377E-13
   103.1900        9.2188010E-14
   103.3800        5.5633260E-14
   103.5700        1.6924858E-14
   103.7600       -2.3419119E-14
   103.9500       -6.4858553E-14
   104.1400       -1.0684253E-13
   104.3300       -1.4882083E-13
   104.5200       -1.9025688E-13
   104.7100       -2.3064273E-13
   104.9000       -2.6951670E-13
   105.0900       -3.0648349E-13
   105.2800       -3.4123542E-13
   105.4700       -3.7357330E-13
   105.6600       -4.0342401E-13
   105.8500       -4.3085313E-13
   106.0400       -4.5607040E-13
   106.2300       -4.7942791E-13
   106.4200       -5.0141255E-13
   106.6100       -5.2263283E-13
   106.8000       -5.4380431E-13
   106.9900       -5.6573447E-13
   107.1800       -5.8930882E-13
   107.3700       -6.1547886E-13
   107.5600       -6.4525045E-13
   107.7500       -6.7967322E-13
   107.9400       -7.1982871E-13
   108.1300       -7.6681722E-13
   108.3200       -8.2174328E-13
   108.5100       -8.8570058E-13
   108.7000       -9.5975593E-13
   108.8900       -1.0449354E-12
   109.0800       -1.1422132E-12
   109.2700       -1.2525020E-12
   109.4600       -1.3766453E-12
   109.6500       -1.5154094E-12
   109.8400       -1.6694741E-12
   110.0300       -1.8394247E-12
   110.2200       -2.0257448E-12
   110.4100       -2.2288128E-12
   110.6000       -2.4489044E-12
   110.7900       -2.6861961E-12
   110.9800       -2.9407774E-12
   111.1700       -3.2126595E-12
   111.3600       -3.5017872E-12
   111.5500       -3.8080485E-12
   111.7400       -4.1312817E-12
   111.9300       -4.4712797E-12
   112.1200       -4.8277940E-12
   112.3100       -5.2005423E-12
   112.5000       -5.5892218E-12
   112.6900       -5.9935204E-12
   112.8800       -6.4131339E-12
   113.0700       -6.8477841E-12
   113.2600       -7.2972323E-12
   113.4500       -7.7612933E-12
   113.6400       -8.2398489E-12
   113.8300       -8.7328617E-12
   114.0200       -9.2403802E-12
   114.2100       -9.7625562E-12
   114.4000       -1.0299650E-11
   114.5900       -1.0852041E-11
   114.7800       -1.1420235E-11
   114.9700       -1.2004855E-11
   115.1600       -1.2606630E-11
   115.3500       -1.3226383E-11
   115.5400       -1.3864984E-11
   115.7300       -1.4523340E-11
   115.9200       -1.5202353E-11
   116.1100       -1.5902881E-11
   116.3000       -1.6625708E-11
   116.4900       -1.7371498E-11
   116.6800       -1.8140777E-11
   116.8700       -1.8933901E-11
   117.0600       -1.9751041E-11
   117.2500       -2.0592165E-11
   117.4400       -2.1457050E-11
   117.6300       -2.2345292E-11
   117.8200       -2.3256334E-11
   118.0100       -2.4189498E-11
   118.2000       -2.5144005E-11
   118.3900       -2.6119053E-11
   118.5800       -2.7113806E-11
   118.7700       -2.8127441E-11
   118.9600       -2.9159154E-11
   119.1500       -3.0208173E-11
   119.3400       -3.1273734E-11
   119.5300       -3.2355073E-11
   119.7200       -3.3451422E-11
   119.9100       -3.4561989E-11
   120.1000       -3.5685937E-11
   120.2900       -3.6822396E-11
   120.4800       -3.7970477E-11
   120.6700       -3.9129231E-11
   120.8600       -4.0297710E-11
   121.0500       -4.1474983E-11
   121.2400       -4.2660184E-11
   121.4300       -4.3852515E-11
   121.6200       -4.5051265E-11
   121.8100       -4.6255843E-11
   122.0000       -4.7465757E-11
   122.1900       -4.8680622E-11
   122.3800       -4.9900150E-11
   122.5700       -5.1124108E-11
   122.7600       -5.2352244E-11
   122.9500       -5.3584259E-11
   123.1400       -5.4819812E-11
   123.3300       -5.6058505E-11
   123.5200       -5.7299877E-11
   123.7100       -5.8543365E-11
   123.9000       -5.9788334E-11
   124.0900       -6.1034032E-11
   124.2800       -6.2279633E-11
   124.4700       -6.3524269E-11
   124.6600       -6.4766977E-11
   124.8500       -6.6006679E-11
   125.0400       -6.7242184E-11
   125.2300       -6.8472179E-11
   125.4200       -6.9695201E-11
   125.6100       -7.0909660E-11
   125.8000       -7.2113822E-11
   125.9900       -7.3305750E-11
   126.1800       -7.4483308E-11
   126.3700       -7.5644241E-11
   126.5600       -7.6786147E-11
   126.7500       -7.7906522E-11
   126.9400       -7.9002839E-11
   127.1300       -8.0072567E-11
   127.3200       -8.1113241E-11
   127.5100       -8.2122503E-11
   127.7000       -8.3098139E-11
   127.8900       -8.4038068E-11
   128.0800       -8.4940388E-11
   128.2700       -8.5803351E-11
   128.4600       -8.6625367E-11
   128.6500       -8.7405014E-11
   128.8400       -8.8141064E-11
   129.0300       -8.8832414E-11
   129.2200       -8.9478112E-11
   129.4100       -9.0077279E-11
   129.6000       -9.0629129E-11
   129.7900       -9.1132997E-11
   129.9800       -9.1588272E-11
   130.1700       -9.1994412E-11
   130.3600       -9.2350898E-11
   130.5500       -9.2657278E-11
   130.7400       -9.2913136E-11
   130.9300       -9.3118131E-11
   131.1200       -9.3271980E-11
   131.3100       -9.3374461E-11
   131.5000       -9.3425358E-11
   131.6900       -9.3424442E-11
   131.8800       -9.3371387E-11
   132.0700       -9.3265812E-11
   132.2600       -9.3107196E-11
   132.4500       -9.2894872E-11
   132.6400       -9.2627864E-11
   132.8300       -9.2304983E-11
   133.0200       -9.1924753E-11
   133.2100       -9.1485416E-11
   133.4000       -9.0984914E-11
   133.5900       -9.0420907E-11
   133.7800       -8.9790841E-11
   133.9700       -8.9091887E-11
   134.1600       -8.8321177E-11
   134.3500       -8.7475763E-11
   134.5400       -8.6552765E-11
   134.7300       -8.5549366E-11
   134.9200       -8.4462881E-11
   135.1100       -8.3290853E-11
   135.3000       -8.2031035E-11
   135.4900       -8.0681559E-11
   135.6800       -7.9240836E-11
   135.8700       -7.7707625E-11
   136.0600       -7.6081030E-11
   136.2500       -7.4360490E-11
   136.4400       -7.2545775E-11
   136.6300       -7.0637017E-11
   136.8200       -6.8634660E-11
   137.0100       -6.6539385E-11
   137.2000       -6.4352093E-11
   137.3900       -6.2073777E-11
   137.5800       -5.9705567E-11
   137.7700       -5.7248664E-11
   137.9600       -5.4704328E-11
   138.1500       -5.2073894E-11
   138.3400       -4.9358649E-11
   138.5300       -4.6559860E-11
   138.7200       -4.3678818E-11
   138.9100       -4.0716760E-11
   139.1000       -3.7674867E-11
   139.2900       -3.4554248E-11
   139.4800       -3.1355966E-11
   139.6700       -2.8080914E-11
   139.8600       -2.4729821E-11
   140.0500       -2.1303190E-11
   140.2400       -1.7801299E-11
   140.4300       -1.4224243E-11
   140.6200       -1.0571875E-11
   140.8100       -6.8438545E-12
   141.0000       -3.0397137E-12
   141.1900        8.4116774E-13
   141.3800        4.7994616E-12
   141.5700        8.8358496E-12
   141.7600        1.2950914E-11
   141.9500        1.7145176E-11
   142.1400        2.1419049E-11
   142.3300        2.5772832E-11
   142.5200        3.0206709E-11